
     Program PHONON v.6.7MaX starts on 26Jun2021 at 20:13:17 

     This program is part of the open-source Quantum ESPRESSO suite
     for quantum simulation of materials; please cite
         "P. Giannozzi et al., J. Phys.:Condens. Matter 21 395502 (2009);
         "P. Giannozzi et al., J. Phys.:Condens. Matter 29 465901 (2017);
          URL http://www.quantum-espresso.org", 
     in publications or presentations arising from this work. More details at
     http://www.quantum-espresso.org/quote

     Serial version
     Reading input from al.elph.in

     Reading xml data from directory:

     /home/k-tsukamoto/win/Documents/QuantumEspresso/q-e-qe-6.7.0/tempdir/al_lead.save/

     IMPORTANT: XC functional enforced from input :
     Exchange-correlation= PZ
                           (   1   1   0   0   0   0   0)
     Any further DFT definition will be discarded
     Please, verify this is what you really want


     G-vector sticks info
     --------------------
     sticks:   dense  smooth     PW     G-vecs:    dense   smooth      PW
     Sum         121     121     43                  869      869     181

     Reading collected, re-writing distributed wavefunctions


     Dynamical matrices for ( 3, 3, 3)  uniform grid of q-points
     (   4 q-points):
       N         xq(1)         xq(2)         xq(3) 
       1   0.000000000   0.000000000   0.000000000
       2  -0.333333333   0.333333333  -0.333333333
       3   0.000000000   0.666666667   0.000000000
       4   0.666666667  -0.000000000   0.666666667

     Saving dvscf to file. Distribute only q points, not irreducible represetations.

     Calculation of q =    0.0000000   0.0000000   0.0000000

     Electron-phonon coefficients for Pb                                        

     bravais-lattice index     =            2
     lattice parameter (alat)  =       7.5000  a.u.
     unit-cell volume          =     105.4688 (a.u.)^3
     number of atoms/cell      =            1
     number of atomic types    =            1
     kinetic-energy cut-off    =      15.0000  Ry
     charge density cut-off    =      60.0000  Ry
     convergence threshold     =      1.0E-12
     beta                      =       0.7000
     number of iterations used =            4
     Exchange-correlation= PZ
                           (   1   1   0   0   0   0   0)


     celldm(1)=    7.50000  celldm(2)=    0.00000  celldm(3)=    0.00000
     celldm(4)=    0.00000  celldm(5)=    0.00000  celldm(6)=    0.00000

     crystal axes: (cart. coord. in units of alat)
               a(1) = ( -0.5000  0.0000  0.5000 )  
               a(2) = (  0.0000  0.5000  0.5000 )  
               a(3) = ( -0.5000  0.5000  0.0000 )  

     reciprocal axes: (cart. coord. in units 2 pi/alat)
               b(1) = ( -1.0000 -1.0000  1.0000 )  
               b(2) = (  1.0000  1.0000  1.0000 )  
               b(3) = ( -1.0000  1.0000 -1.0000 )  


     Atoms inside the unit cell: 

     Cartesian axes

     site n.  atom      mass           positions (alat units)
        1     Al  26.9800   tau(    1) = (    0.00000    0.00000    0.00000  )

     Computing dynamical matrix for 
                    q = (   0.0000000   0.0000000   0.0000000 )

     49 Sym.Ops. (with q -> -q+G )


     G cutoff =   85.4897  (    869 G-vectors)     FFT grid: ( 15, 15, 15)

     number of k points=    35  Marzari-Vanderbilt smearing, width (Ry)=  0.0500

     PseudoPot. # 1 for Al read from file:
     /home/k-tsukamoto/win/Documents/QuantumEspresso/q-e-qe-6.7.0/pseudo/Al.pz-vbc.UPF
     MD5 check sum: f06ceae8da0fe5c02c98e3688433298c
     Pseudo is Norm-conserving, Zval =  3.0
     Generated by new atomic code, or converted to UPF format
     Using radial grid of  171 points,  2 beta functions with: 
                l(1) =   0
                l(2) =   1

     Mode symmetry, O_h (m-3m)  point group:


     Atomic displacements:
     There are    1 irreducible representations

     Representation     1      3 modes -  To be done



     Alpha used in Ewald sum =   0.7000
     PHONON       :      0.06s CPU      0.08s WALL



     Representation #   1 modes #   1   2   3

     Self-consistent Calculation

     Pert. #  1: Fermi energy shift (Ry) =    -7.2486E-25     2.9387E-39
     Pert. #  2: Fermi energy shift (Ry) =     7.1624E-26     0.0000E+00
     Pert. #  3: Fermi energy shift (Ry) =     1.0609E-25    -2.3510E-38

      iter #   1 total cpu time :     0.2 secs   av.it.:   3.4
      thresh= 1.000E-02 alpha_mix =  0.700 |ddv_scf|^2 =  1.431E-08

     Pert. #  1: Fermi energy shift (Ry) =    -1.6371E-25    -1.2723E-40
     Pert. #  2: Fermi energy shift (Ry) =     6.3439E-25     0.0000E+00
     Pert. #  3: Fermi energy shift (Ry) =     1.7018E-25    -1.2245E-40

      iter #   2 total cpu time :     0.3 secs   av.it.:   5.7
      thresh= 1.196E-05 alpha_mix =  0.700 |ddv_scf|^2 =  1.502E-09

     Pert. #  1: Fermi energy shift (Ry) =     3.4466E-26     2.8699E-42
     Pert. #  2: Fermi energy shift (Ry) =     3.4250E-25     0.0000E+00
     Pert. #  3: Fermi energy shift (Ry) =    -1.0555E-25    -2.2959E-41

      iter #   3 total cpu time :     0.3 secs   av.it.:   5.4
      thresh= 3.875E-06 alpha_mix =  0.700 |ddv_scf|^2 =  1.834E-13

     End of self-consistent calculation

     Convergence has been achieved 

     Number of q in the star =    1
     List of q in the star:
          1   0.000000000   0.000000000   0.000000000

     Diagonalizing the dynamical matrix

     q = (    0.000000000   0.000000000   0.000000000 ) 

 **************************************************************************
     freq (    1) =       0.178629 [THz] =       5.958424 [cm-1]
     freq (    2) =       0.178629 [THz] =       5.958424 [cm-1]
     freq (    3) =       0.178629 [THz] =       5.958424 [cm-1]
 **************************************************************************

     Mode symmetry, O_h (m-3m)  point group:

     freq (   1-   3) =          6.0  [cm-1]   --> T_1u G_15  G_4- I  
     electron-phonon interaction  ...

     Gaussian Broadening:   0.005 Ry, ngauss=   0
     DOS =  4.656132 states/spin/Ry/Unit Cell at Ef=  8.285286 eV
     lambda(    1)=  0.0000   gamma=    0.00 GHz
     lambda(    2)=  0.0000   gamma=    0.00 GHz
     lambda(    3)=  0.0000   gamma=    0.00 GHz
     Gaussian Broadening:   0.010 Ry, ngauss=   0
     DOS =  3.536242 states/spin/Ry/Unit Cell at Ef=  8.285333 eV
     lambda(    1)=  0.0000   gamma=    0.00 GHz
     lambda(    2)=  0.0000   gamma=    0.00 GHz
     lambda(    3)=  0.0000   gamma=    0.00 GHz
     Gaussian Broadening:   0.015 Ry, ngauss=   0
     DOS =  3.064761 states/spin/Ry/Unit Cell at Ef=  8.283433 eV
     lambda(    1)=  0.0000   gamma=    0.15 GHz
     lambda(    2)=  0.0000   gamma=    0.13 GHz
     lambda(    3)=  0.0000   gamma=    0.13 GHz
     Gaussian Broadening:   0.020 Ry, ngauss=   0
     DOS =  2.921395 states/spin/Ry/Unit Cell at Ef=  8.282380 eV
     lambda(    1)=  0.0000   gamma=    0.51 GHz
     lambda(    2)=  0.0000   gamma=    0.47 GHz
     lambda(    3)=  0.0000   gamma=    0.47 GHz
     Gaussian Broadening:   0.025 Ry, ngauss=   0
     DOS =  2.856557 states/spin/Ry/Unit Cell at Ef=  8.281894 eV
     lambda(    1)=  0.0000   gamma=    0.81 GHz
     lambda(    2)=  0.0000   gamma=    0.75 GHz
     lambda(    3)=  0.0000   gamma=    0.74 GHz
     Gaussian Broadening:   0.030 Ry, ngauss=   0
     DOS =  2.807991 states/spin/Ry/Unit Cell at Ef=  8.281934 eV
     lambda(    1)=  0.0000   gamma=    0.95 GHz
     lambda(    2)=  0.0000   gamma=    0.88 GHz
     lambda(    3)=  0.0000   gamma=    0.88 GHz
     Gaussian Broadening:   0.035 Ry, ngauss=   0
     DOS =  2.767611 states/spin/Ry/Unit Cell at Ef=  8.282348 eV
     lambda(    1)=  0.0000   gamma=    1.02 GHz
     lambda(    2)=  0.0000   gamma=    0.95 GHz
     lambda(    3)=  0.0000   gamma=    0.94 GHz
     Gaussian Broadening:   0.040 Ry, ngauss=   0
     DOS =  2.735973 states/spin/Ry/Unit Cell at Ef=  8.282832 eV
     lambda(    1)=  0.0000   gamma=    1.06 GHz
     lambda(    2)=  0.0000   gamma=    1.00 GHz
     lambda(    3)=  0.0000   gamma=    0.99 GHz
     Gaussian Broadening:   0.045 Ry, ngauss=   0
     DOS =  2.713291 states/spin/Ry/Unit Cell at Ef=  8.283104 eV
     lambda(    1)=  0.0000   gamma=    1.11 GHz
     lambda(    2)=  0.0000   gamma=    1.05 GHz
     lambda(    3)=  0.0000   gamma=    1.05 GHz
     Gaussian Broadening:   0.050 Ry, ngauss=   0
     DOS =  2.698245 states/spin/Ry/Unit Cell at Ef=  8.283001 eV
     lambda(    1)=  0.0000   gamma=    1.18 GHz
     lambda(    2)=  0.0000   gamma=    1.13 GHz
     lambda(    3)=  0.0000   gamma=    1.13 GHz


     Number of q in the star =    1
     List of q in the star:
          1   0.000000000   0.000000000   0.000000000

     Calculation of q =   -0.3333333   0.3333333  -0.3333333

     G-vector sticks info
     --------------------
     sticks:   dense  smooth     PW     G-vecs:    dense   smooth      PW
     Sum         121     121     55                  869      869     283


     Title: 
     Electron-phonon coefficients for Pb                                        


     bravais-lattice index     =            2
     lattice parameter (alat)  =       7.5000  a.u.
     unit-cell volume          =     105.4688 (a.u.)^3
     number of atoms/cell      =            1
     number of atomic types    =            1
     number of electrons       =         3.00
     number of Kohn-Sham states=            6
     kinetic-energy cutoff     =      15.0000  Ry
     charge density cutoff     =      60.0000  Ry
     Exchange-correlation= PZ
                           (   1   1   0   0   0   0   0)

     celldm(1)=   7.500000  celldm(2)=   0.000000  celldm(3)=   0.000000
     celldm(4)=   0.000000  celldm(5)=   0.000000  celldm(6)=   0.000000

     crystal axes: (cart. coord. in units of alat)
               a(1) = (  -0.500000   0.000000   0.500000 )  
               a(2) = (   0.000000   0.500000   0.500000 )  
               a(3) = (  -0.500000   0.500000   0.000000 )  

     reciprocal axes: (cart. coord. in units 2 pi/alat)
               b(1) = ( -1.000000 -1.000000  1.000000 )  
               b(2) = (  1.000000  1.000000  1.000000 )  
               b(3) = ( -1.000000  1.000000 -1.000000 )  


     PseudoPot. # 1 for Al read from file:
     /home/k-tsukamoto/win/Documents/QuantumEspresso/q-e-qe-6.7.0/pseudo/Al.pz-vbc.UPF
     MD5 check sum: f06ceae8da0fe5c02c98e3688433298c
     Pseudo is Norm-conserving, Zval =  3.0
     Generated by new atomic code, or converted to UPF format
     Using radial grid of  171 points,  2 beta functions with: 
                l(1) =   0
                l(2) =   1

     atomic species   valence    mass     pseudopotential
        Al             3.00    26.98000     Al( 1.00)

     48 Sym. Ops., with inversion, found



   Cartesian axes

     site n.     atom                  positions (alat units)
         1           Al  tau(   1) = (   0.0000000   0.0000000   0.0000000  )

     number of k points=   330  Marzari-Vanderbilt smearing, width (Ry)=  0.0500

     Number of k-points >= 100: set verbosity='high' to print them.

     Dense  grid:      869 G-vectors     FFT dimensions: (  15,  15,  15)

     Estimated max dynamical RAM per process >       0.52 MB

     The potential is recalculated from file :
     /home/k-tsukamoto/win/Documents/QuantumEspresso/q-e-qe-6.7.0/tempdir/_ph0/al_lead.q_2/al_lead.save/charge-density

     Starting wfcs are    4 atomic +    2 random wfcs

     Band Structure Calculation
     Davidson diagonalization with overlap

     ethr =  3.33E-10,  avg # of iterations = 14.5

     total cpu time spent up to now is        1.5 secs

     End of band structure calculation

     Number of k-points >= 100: set verbosity='high' to print the bands.

     the Fermi energy is     8.3165 ev

     Writing output data file /home/k-tsukamoto/win/Documents/QuantumEspresso/q-e-qe-6.7.0/tempdir/_ph0/al_lead.q_2/al_lead.save/

     Electron-phonon coefficients for Pb                                        

     bravais-lattice index     =            2
     lattice parameter (alat)  =       7.5000  a.u.
     unit-cell volume          =     105.4688 (a.u.)^3
     number of atoms/cell      =            1
     number of atomic types    =            1
     kinetic-energy cut-off    =      15.0000  Ry
     charge density cut-off    =      60.0000  Ry
     convergence threshold     =      1.0E-12
     beta                      =       0.7000
     number of iterations used =            4
     Exchange-correlation= PZ
                           (   1   1   0   0   0   0   0)


     celldm(1)=    7.50000  celldm(2)=    0.00000  celldm(3)=    0.00000
     celldm(4)=    0.00000  celldm(5)=    0.00000  celldm(6)=    0.00000

     crystal axes: (cart. coord. in units of alat)
               a(1) = ( -0.5000  0.0000  0.5000 )  
               a(2) = (  0.0000  0.5000  0.5000 )  
               a(3) = ( -0.5000  0.5000  0.0000 )  

     reciprocal axes: (cart. coord. in units 2 pi/alat)
               b(1) = ( -1.0000 -1.0000  1.0000 )  
               b(2) = (  1.0000  1.0000  1.0000 )  
               b(3) = ( -1.0000  1.0000 -1.0000 )  


     Atoms inside the unit cell: 

     Cartesian axes

     site n.  atom      mass           positions (alat units)
        1     Al  26.9800   tau(    1) = (    0.00000    0.00000    0.00000  )

     Computing dynamical matrix for 
                    q = (  -0.3333333   0.3333333  -0.3333333 )

      6 Sym.Ops. (no q -> -q+G )


     G cutoff =   85.4897  (    869 G-vectors)     FFT grid: ( 15, 15, 15)

     number of k points=   330  Marzari-Vanderbilt smearing, width (Ry)=  0.0500

     PseudoPot. # 1 for Al read from file:
     /home/k-tsukamoto/win/Documents/QuantumEspresso/q-e-qe-6.7.0/pseudo/Al.pz-vbc.UPF
     MD5 check sum: f06ceae8da0fe5c02c98e3688433298c
     Pseudo is Norm-conserving, Zval =  3.0
     Generated by new atomic code, or converted to UPF format
     Using radial grid of  171 points,  2 beta functions with: 
                l(1) =   0
                l(2) =   1

     Mode symmetry, C_3v (3m)   point group:


     Atomic displacements:
     There are    2 irreducible representations

     Representation     1      1 modes -  To be done

     Representation     2      2 modes -  To be done



     Alpha used in Ewald sum =   0.7000
     PHONON       :      2.69s CPU      2.94s WALL



     Representation #   1 mode #   1

     Self-consistent Calculation

      iter #   1 total cpu time :     3.1 secs   av.it.:   4.2
      thresh= 1.000E-02 alpha_mix =  0.700 |ddv_scf|^2 =  3.207E-03

      iter #   2 total cpu time :     3.2 secs   av.it.:   4.9
      thresh= 5.663E-03 alpha_mix =  0.700 |ddv_scf|^2 =  3.492E-02

      iter #   3 total cpu time :     3.3 secs   av.it.:   4.2
      thresh= 1.000E-02 alpha_mix =  0.700 |ddv_scf|^2 =  5.139E-07

      iter #   4 total cpu time :     3.5 secs   av.it.:   5.7
      thresh= 7.169E-05 alpha_mix =  0.700 |ddv_scf|^2 =  1.867E-08

      iter #   5 total cpu time :     3.6 secs   av.it.:   5.3
      thresh= 1.366E-05 alpha_mix =  0.700 |ddv_scf|^2 =  3.055E-10

      iter #   6 total cpu time :     3.7 secs   av.it.:   5.1
      thresh= 1.748E-06 alpha_mix =  0.700 |ddv_scf|^2 =  3.251E-12

      iter #   7 total cpu time :     3.8 secs   av.it.:   4.5
      thresh= 1.803E-07 alpha_mix =  0.700 |ddv_scf|^2 =  2.143E-15

     End of self-consistent calculation

     Convergence has been achieved 


     Representation #   2 modes #   2   3

     Self-consistent Calculation

      iter #   1 total cpu time :     4.2 secs   av.it.:   3.4
      thresh= 1.000E-02 alpha_mix =  0.700 |ddv_scf|^2 =  3.934E-08

      iter #   2 total cpu time :     4.5 secs   av.it.:   5.9
      thresh= 1.983E-05 alpha_mix =  0.700 |ddv_scf|^2 =  3.544E-09

      iter #   3 total cpu time :     4.7 secs   av.it.:   5.6
      thresh= 5.953E-06 alpha_mix =  0.700 |ddv_scf|^2 =  1.722E-11

      iter #   4 total cpu time :     5.0 secs   av.it.:   5.9
      thresh= 4.149E-07 alpha_mix =  0.700 |ddv_scf|^2 =  1.370E-14

     End of self-consistent calculation

     Convergence has been achieved 

     Number of q in the star =    8
     List of q in the star:
          1  -0.333333333   0.333333333  -0.333333333
          2   0.333333333   0.333333333  -0.333333333
          3   0.333333333   0.333333333   0.333333333
          4  -0.333333333   0.333333333   0.333333333
          5   0.333333333  -0.333333333   0.333333333
          6  -0.333333333  -0.333333333  -0.333333333
          7   0.333333333  -0.333333333  -0.333333333
          8  -0.333333333  -0.333333333   0.333333333

     Diagonalizing the dynamical matrix

     q = (   -0.333333333   0.333333333  -0.333333333 ) 

 **************************************************************************
     freq (    1) =       4.121806 [THz] =     137.488641 [cm-1]
     freq (    2) =       4.121806 [THz] =     137.488641 [cm-1]
     freq (    3) =       8.041742 [THz] =     268.243627 [cm-1]
 **************************************************************************

     Mode symmetry, C_3v (3m)   point group:

     freq (   1-   2) =        137.5  [cm-1]   --> E    L_3           
     freq (   3-   3) =        268.2  [cm-1]   --> A_1  L_1           
     electron-phonon interaction  ...

     Gaussian Broadening:   0.005 Ry, ngauss=   0
     DOS =  4.656132 states/spin/Ry/Unit Cell at Ef=  8.285286 eV
     lambda(    1)=  0.0586   gamma=    4.42 GHz
     lambda(    2)=  0.0589   gamma=    4.45 GHz
     lambda(    3)=  0.8433   gamma=  242.48 GHz
     Gaussian Broadening:   0.010 Ry, ngauss=   0
     DOS =  3.536242 states/spin/Ry/Unit Cell at Ef=  8.285333 eV
     lambda(    1)=  0.0482   gamma=    2.76 GHz
     lambda(    2)=  0.0482   gamma=    2.77 GHz
     lambda(    3)=  0.4373   gamma=   95.49 GHz
     Gaussian Broadening:   0.015 Ry, ngauss=   0
     DOS =  3.064761 states/spin/Ry/Unit Cell at Ef=  8.283433 eV
     lambda(    1)=  0.0409   gamma=    2.04 GHz
     lambda(    2)=  0.0409   gamma=    2.03 GHz
     lambda(    3)=  0.3272   gamma=   61.92 GHz
     Gaussian Broadening:   0.020 Ry, ngauss=   0
     DOS =  2.921395 states/spin/Ry/Unit Cell at Ef=  8.282380 eV
     lambda(    1)=  0.0397   gamma=    1.88 GHz
     lambda(    2)=  0.0396   gamma=    1.88 GHz
     lambda(    3)=  0.2814   gamma=   50.77 GHz
     Gaussian Broadening:   0.025 Ry, ngauss=   0
     DOS =  2.856557 states/spin/Ry/Unit Cell at Ef=  8.281894 eV
     lambda(    1)=  0.0415   gamma=    1.92 GHz
     lambda(    2)=  0.0415   gamma=    1.92 GHz
     lambda(    3)=  0.2533   gamma=   44.68 GHz
     Gaussian Broadening:   0.030 Ry, ngauss=   0
     DOS =  2.807991 states/spin/Ry/Unit Cell at Ef=  8.281934 eV
     lambda(    1)=  0.0433   gamma=    1.97 GHz
     lambda(    2)=  0.0433   gamma=    1.97 GHz
     lambda(    3)=  0.2333   gamma=   40.45 GHz
     Gaussian Broadening:   0.035 Ry, ngauss=   0
     DOS =  2.767611 states/spin/Ry/Unit Cell at Ef=  8.282348 eV
     lambda(    1)=  0.0442   gamma=    1.99 GHz
     lambda(    2)=  0.0443   gamma=    1.99 GHz
     lambda(    3)=  0.2180   gamma=   37.26 GHz
     Gaussian Broadening:   0.040 Ry, ngauss=   0
     DOS =  2.735973 states/spin/Ry/Unit Cell at Ef=  8.282832 eV
     lambda(    1)=  0.0446   gamma=    1.98 GHz
     lambda(    2)=  0.0447   gamma=    1.98 GHz
     lambda(    3)=  0.2068   gamma=   34.94 GHz
     Gaussian Broadening:   0.045 Ry, ngauss=   0
     DOS =  2.713291 states/spin/Ry/Unit Cell at Ef=  8.283104 eV
     lambda(    1)=  0.0446   gamma=    1.96 GHz
     lambda(    2)=  0.0447   gamma=    1.97 GHz
     lambda(    3)=  0.1993   gamma=   33.40 GHz
     Gaussian Broadening:   0.050 Ry, ngauss=   0
     DOS =  2.698245 states/spin/Ry/Unit Cell at Ef=  8.283001 eV
     lambda(    1)=  0.0447   gamma=    1.95 GHz
     lambda(    2)=  0.0448   gamma=    1.96 GHz
     lambda(    3)=  0.1949   gamma=   32.47 GHz


     Number of q in the star =    8
     List of q in the star:
          1  -0.333333333   0.333333333  -0.333333333
          2   0.333333333   0.333333333  -0.333333333
          3   0.333333333   0.333333333   0.333333333
          4  -0.333333333   0.333333333   0.333333333
          5   0.333333333  -0.333333333   0.333333333
          6  -0.333333333  -0.333333333  -0.333333333
          7   0.333333333  -0.333333333  -0.333333333
          8  -0.333333333  -0.333333333   0.333333333

     Calculation of q =    0.0000000   0.6666667   0.0000000

     G-vector sticks info
     --------------------
     sticks:   dense  smooth     PW     G-vecs:    dense   smooth      PW
     Sum         121     121     55                  869      869     283


     Title: 
     Electron-phonon coefficients for Pb                                        


     bravais-lattice index     =            2
     lattice parameter (alat)  =       7.5000  a.u.
     unit-cell volume          =     105.4688 (a.u.)^3
     number of atoms/cell      =            1
     number of atomic types    =            1
     number of electrons       =         3.00
     number of Kohn-Sham states=            6
     kinetic-energy cutoff     =      15.0000  Ry
     charge density cutoff     =      60.0000  Ry
     Exchange-correlation= PZ
                           (   1   1   0   0   0   0   0)

     celldm(1)=   7.500000  celldm(2)=   0.000000  celldm(3)=   0.000000
     celldm(4)=   0.000000  celldm(5)=   0.000000  celldm(6)=   0.000000

     crystal axes: (cart. coord. in units of alat)
               a(1) = (  -0.500000   0.000000   0.500000 )  
               a(2) = (   0.000000   0.500000   0.500000 )  
               a(3) = (  -0.500000   0.500000   0.000000 )  

     reciprocal axes: (cart. coord. in units 2 pi/alat)
               b(1) = ( -1.000000 -1.000000  1.000000 )  
               b(2) = (  1.000000  1.000000  1.000000 )  
               b(3) = ( -1.000000  1.000000 -1.000000 )  


     PseudoPot. # 1 for Al read from file:
     /home/k-tsukamoto/win/Documents/QuantumEspresso/q-e-qe-6.7.0/pseudo/Al.pz-vbc.UPF
     MD5 check sum: f06ceae8da0fe5c02c98e3688433298c
     Pseudo is Norm-conserving, Zval =  3.0
     Generated by new atomic code, or converted to UPF format
     Using radial grid of  171 points,  2 beta functions with: 
                l(1) =   0
                l(2) =   1

     atomic species   valence    mass     pseudopotential
        Al             3.00    26.98000     Al( 1.00)

     48 Sym. Ops., with inversion, found



   Cartesian axes

     site n.     atom                  positions (alat units)
         1           Al  tau(   1) = (   0.0000000   0.0000000   0.0000000  )

     number of k points=   270  Marzari-Vanderbilt smearing, width (Ry)=  0.0500

     Number of k-points >= 100: set verbosity='high' to print them.

     Dense  grid:      869 G-vectors     FFT dimensions: (  15,  15,  15)

     Estimated max dynamical RAM per process >       0.52 MB

     The potential is recalculated from file :
     /home/k-tsukamoto/win/Documents/QuantumEspresso/q-e-qe-6.7.0/tempdir/_ph0/al_lead.q_3/al_lead.save/charge-density

     Starting wfcs are    4 atomic +    2 random wfcs

     Band Structure Calculation
     Davidson diagonalization with overlap

     ethr =  3.33E-10,  avg # of iterations = 14.2

     total cpu time spent up to now is        2.8 secs

     End of band structure calculation

     Number of k-points >= 100: set verbosity='high' to print the bands.

     the Fermi energy is     8.3165 ev

     Writing output data file /home/k-tsukamoto/win/Documents/QuantumEspresso/q-e-qe-6.7.0/tempdir/_ph0/al_lead.q_3/al_lead.save/

     Electron-phonon coefficients for Pb                                        

     bravais-lattice index     =            2
     lattice parameter (alat)  =       7.5000  a.u.
     unit-cell volume          =     105.4688 (a.u.)^3
     number of atoms/cell      =            1
     number of atomic types    =            1
     kinetic-energy cut-off    =      15.0000  Ry
     charge density cut-off    =      60.0000  Ry
     convergence threshold     =      1.0E-12
     beta                      =       0.7000
     number of iterations used =            4
     Exchange-correlation= PZ
                           (   1   1   0   0   0   0   0)


     celldm(1)=    7.50000  celldm(2)=    0.00000  celldm(3)=    0.00000
     celldm(4)=    0.00000  celldm(5)=    0.00000  celldm(6)=    0.00000

     crystal axes: (cart. coord. in units of alat)
               a(1) = ( -0.5000  0.0000  0.5000 )  
               a(2) = (  0.0000  0.5000  0.5000 )  
               a(3) = ( -0.5000  0.5000  0.0000 )  

     reciprocal axes: (cart. coord. in units 2 pi/alat)
               b(1) = ( -1.0000 -1.0000  1.0000 )  
               b(2) = (  1.0000  1.0000  1.0000 )  
               b(3) = ( -1.0000  1.0000 -1.0000 )  


     Atoms inside the unit cell: 

     Cartesian axes

     site n.  atom      mass           positions (alat units)
        1     Al  26.9800   tau(    1) = (    0.00000    0.00000    0.00000  )

     Computing dynamical matrix for 
                    q = (   0.0000000   0.6666667   0.0000000 )

      8 Sym.Ops. (no q -> -q+G )


     G cutoff =   85.4897  (    869 G-vectors)     FFT grid: ( 15, 15, 15)

     number of k points=   270  Marzari-Vanderbilt smearing, width (Ry)=  0.0500

     PseudoPot. # 1 for Al read from file:
     /home/k-tsukamoto/win/Documents/QuantumEspresso/q-e-qe-6.7.0/pseudo/Al.pz-vbc.UPF
     MD5 check sum: f06ceae8da0fe5c02c98e3688433298c
     Pseudo is Norm-conserving, Zval =  3.0
     Generated by new atomic code, or converted to UPF format
     Using radial grid of  171 points,  2 beta functions with: 
                l(1) =   0
                l(2) =   1

     Mode symmetry, C_4v (4mm)  point group:


     Atomic displacements:
     There are    2 irreducible representations

     Representation     1      1 modes -  To be done

     Representation     2      2 modes -  To be done



     Alpha used in Ewald sum =   0.7000
     PHONON       :      6.59s CPU      7.41s WALL



     Representation #   1 mode #   1

     Self-consistent Calculation

      iter #   1 total cpu time :     7.5 secs   av.it.:   4.0
      thresh= 1.000E-02 alpha_mix =  0.700 |ddv_scf|^2 =  9.805E-04

      iter #   2 total cpu time :     7.6 secs   av.it.:   4.9
      thresh= 3.131E-03 alpha_mix =  0.700 |ddv_scf|^2 =  4.409E-03

      iter #   3 total cpu time :     7.7 secs   av.it.:   4.0
      thresh= 6.640E-03 alpha_mix =  0.700 |ddv_scf|^2 =  1.523E-08

      iter #   4 total cpu time :     7.8 secs   av.it.:   5.9
      thresh= 1.234E-05 alpha_mix =  0.700 |ddv_scf|^2 =  1.466E-09

      iter #   5 total cpu time :     7.9 secs   av.it.:   5.1
      thresh= 3.829E-06 alpha_mix =  0.700 |ddv_scf|^2 =  4.173E-11

      iter #   6 total cpu time :     8.1 secs   av.it.:   5.1
      thresh= 6.460E-07 alpha_mix =  0.700 |ddv_scf|^2 =  2.036E-13

     End of self-consistent calculation

     Convergence has been achieved 


     Representation #   2 modes #   2   3

     Self-consistent Calculation

      iter #   1 total cpu time :     8.4 secs   av.it.:   3.5
      thresh= 1.000E-02 alpha_mix =  0.700 |ddv_scf|^2 =  1.878E-07

      iter #   2 total cpu time :     8.6 secs   av.it.:   6.1
      thresh= 4.333E-05 alpha_mix =  0.700 |ddv_scf|^2 =  3.514E-09

      iter #   3 total cpu time :     8.8 secs   av.it.:   5.2
      thresh= 5.928E-06 alpha_mix =  0.700 |ddv_scf|^2 =  3.227E-10

      iter #   4 total cpu time :     9.1 secs   av.it.:   5.4
      thresh= 1.797E-06 alpha_mix =  0.700 |ddv_scf|^2 =  1.212E-14

     End of self-consistent calculation

     Convergence has been achieved 

     Number of q in the star =    6
     List of q in the star:
          1   0.000000000   0.666666667   0.000000000
          2  -0.666666667   0.000000000   0.000000000
          3   0.000000000  -0.666666667   0.000000000
          4   0.000000000   0.000000000   0.666666667
          5   0.000000000   0.000000000  -0.666666667
          6   0.666666667   0.000000000   0.000000000

     Diagonalizing the dynamical matrix

     q = (    0.000000000   0.666666667   0.000000000 ) 

 **************************************************************************
     freq (    1) =       5.027309 [THz] =     167.692979 [cm-1]
     freq (    2) =       5.027309 [THz] =     167.692979 [cm-1]
     freq (    3) =       8.458579 [THz] =     282.147841 [cm-1]
 **************************************************************************

     Mode symmetry, C_4v (4mm)  point group:

     freq (   1-   2) =        167.7  [cm-1]   --> E    G_5 D_5       
     freq (   3-   3) =        282.1  [cm-1]   --> A_1  G_1 D_1       
     electron-phonon interaction  ...

     Gaussian Broadening:   0.005 Ry, ngauss=   0
     DOS =  4.656132 states/spin/Ry/Unit Cell at Ef=  8.285286 eV
     lambda(    1)=  0.0006   gamma=    0.06 GHz
     lambda(    2)=  0.0006   gamma=    0.06 GHz
     lambda(    3)=  0.5321   gamma=  169.28 GHz
     Gaussian Broadening:   0.010 Ry, ngauss=   0
     DOS =  3.536242 states/spin/Ry/Unit Cell at Ef=  8.285333 eV
     lambda(    1)=  0.0347   gamma=    2.96 GHz
     lambda(    2)=  0.0347   gamma=    2.96 GHz
     lambda(    3)=  0.2414   gamma=   58.32 GHz
     Gaussian Broadening:   0.015 Ry, ngauss=   0
     DOS =  3.064761 states/spin/Ry/Unit Cell at Ef=  8.283433 eV
     lambda(    1)=  0.0921   gamma=    6.82 GHz
     lambda(    2)=  0.0921   gamma=    6.82 GHz
     lambda(    3)=  0.1594   gamma=   33.39 GHz
     Gaussian Broadening:   0.020 Ry, ngauss=   0
     DOS =  2.921395 states/spin/Ry/Unit Cell at Ef=  8.282380 eV
     lambda(    1)=  0.1238   gamma=    8.73 GHz
     lambda(    2)=  0.1238   gamma=    8.73 GHz
     lambda(    3)=  0.1268   gamma=   25.30 GHz
     Gaussian Broadening:   0.025 Ry, ngauss=   0
     DOS =  2.856557 states/spin/Ry/Unit Cell at Ef=  8.281894 eV
     lambda(    1)=  0.1352   gamma=    9.32 GHz
     lambda(    2)=  0.1352   gamma=    9.32 GHz
     lambda(    3)=  0.1209   gamma=   23.60 GHz
     Gaussian Broadening:   0.030 Ry, ngauss=   0
     DOS =  2.807991 states/spin/Ry/Unit Cell at Ef=  8.281934 eV
     lambda(    1)=  0.1392   gamma=    9.44 GHz
     lambda(    2)=  0.1392   gamma=    9.44 GHz
     lambda(    3)=  0.1283   gamma=   24.62 GHz
     Gaussian Broadening:   0.035 Ry, ngauss=   0
     DOS =  2.767611 states/spin/Ry/Unit Cell at Ef=  8.282348 eV
     lambda(    1)=  0.1413   gamma=    9.44 GHz
     lambda(    2)=  0.1413   gamma=    9.44 GHz
     lambda(    3)=  0.1406   gamma=   26.58 GHz
     Gaussian Broadening:   0.040 Ry, ngauss=   0
     DOS =  2.735973 states/spin/Ry/Unit Cell at Ef=  8.282832 eV
     lambda(    1)=  0.1431   gamma=    9.45 GHz
     lambda(    2)=  0.1431   gamma=    9.45 GHz
     lambda(    3)=  0.1537   gamma=   28.74 GHz
     Gaussian Broadening:   0.045 Ry, ngauss=   0
     DOS =  2.713291 states/spin/Ry/Unit Cell at Ef=  8.283104 eV
     lambda(    1)=  0.1450   gamma=    9.50 GHz
     lambda(    2)=  0.1450   gamma=    9.50 GHz
     lambda(    3)=  0.1660   gamma=   30.77 GHz
     Gaussian Broadening:   0.050 Ry, ngauss=   0
     DOS =  2.698245 states/spin/Ry/Unit Cell at Ef=  8.283001 eV
     lambda(    1)=  0.1470   gamma=    9.57 GHz
     lambda(    2)=  0.1470   gamma=    9.57 GHz
     lambda(    3)=  0.1765   gamma=   32.55 GHz


     Number of q in the star =    6
     List of q in the star:
          1   0.000000000   0.666666667   0.000000000
          2  -0.666666667   0.000000000   0.000000000
          3   0.000000000  -0.666666667   0.000000000
          4   0.000000000   0.000000000   0.666666667
          5   0.000000000   0.000000000  -0.666666667
          6   0.666666667   0.000000000   0.000000000

     Calculation of q =    0.6666667  -0.0000000   0.6666667

     G-vector sticks info
     --------------------
     sticks:   dense  smooth     PW     G-vecs:    dense   smooth      PW
     Sum         121     121     61                  869      869     331


     Title: 
     Electron-phonon coefficients for Pb                                        


     bravais-lattice index     =            2
     lattice parameter (alat)  =       7.5000  a.u.
     unit-cell volume          =     105.4688 (a.u.)^3
     number of atoms/cell      =            1
     number of atomic types    =            1
     number of electrons       =         3.00
     number of Kohn-Sham states=            6
     kinetic-energy cutoff     =      15.0000  Ry
     charge density cutoff     =      60.0000  Ry
     Exchange-correlation= PZ
                           (   1   1   0   0   0   0   0)

     celldm(1)=   7.500000  celldm(2)=   0.000000  celldm(3)=   0.000000
     celldm(4)=   0.000000  celldm(5)=   0.000000  celldm(6)=   0.000000

     crystal axes: (cart. coord. in units of alat)
               a(1) = (  -0.500000   0.000000   0.500000 )  
               a(2) = (   0.000000   0.500000   0.500000 )  
               a(3) = (  -0.500000   0.500000   0.000000 )  

     reciprocal axes: (cart. coord. in units 2 pi/alat)
               b(1) = ( -1.000000 -1.000000  1.000000 )  
               b(2) = (  1.000000  1.000000  1.000000 )  
               b(3) = ( -1.000000  1.000000 -1.000000 )  


     PseudoPot. # 1 for Al read from file:
     /home/k-tsukamoto/win/Documents/QuantumEspresso/q-e-qe-6.7.0/pseudo/Al.pz-vbc.UPF
     MD5 check sum: f06ceae8da0fe5c02c98e3688433298c
     Pseudo is Norm-conserving, Zval =  3.0
     Generated by new atomic code, or converted to UPF format
     Using radial grid of  171 points,  2 beta functions with: 
                l(1) =   0
                l(2) =   1

     atomic species   valence    mass     pseudopotential
        Al             3.00    26.98000     Al( 1.00)

     48 Sym. Ops., with inversion, found



   Cartesian axes

     site n.     atom                  positions (alat units)
         1           Al  tau(   1) = (   0.0000000   0.0000000   0.0000000  )

     number of k points=   450  Marzari-Vanderbilt smearing, width (Ry)=  0.0500

     Number of k-points >= 100: set verbosity='high' to print them.

     Dense  grid:      869 G-vectors     FFT dimensions: (  15,  15,  15)

     Estimated max dynamical RAM per process >       0.52 MB

     The potential is recalculated from file :
     /home/k-tsukamoto/win/Documents/QuantumEspresso/q-e-qe-6.7.0/tempdir/_ph0/al_lead.q_4/al_lead.save/charge-density

     Starting wfcs are    4 atomic +    2 random wfcs

     Band Structure Calculation
     Davidson diagonalization with overlap

     ethr =  3.33E-10,  avg # of iterations = 14.1

     total cpu time spent up to now is        4.9 secs

     End of band structure calculation

     Number of k-points >= 100: set verbosity='high' to print the bands.

     the Fermi energy is     8.3165 ev

     Writing output data file /home/k-tsukamoto/win/Documents/QuantumEspresso/q-e-qe-6.7.0/tempdir/_ph0/al_lead.q_4/al_lead.save/

     Electron-phonon coefficients for Pb                                        

     bravais-lattice index     =            2
     lattice parameter (alat)  =       7.5000  a.u.
     unit-cell volume          =     105.4688 (a.u.)^3
     number of atoms/cell      =            1
     number of atomic types    =            1
     kinetic-energy cut-off    =      15.0000  Ry
     charge density cut-off    =      60.0000  Ry
     convergence threshold     =      1.0E-12
     beta                      =       0.7000
     number of iterations used =            4
     Exchange-correlation= PZ
                           (   1   1   0   0   0   0   0)


     celldm(1)=    7.50000  celldm(2)=    0.00000  celldm(3)=    0.00000
     celldm(4)=    0.00000  celldm(5)=    0.00000  celldm(6)=    0.00000

     crystal axes: (cart. coord. in units of alat)
               a(1) = ( -0.5000  0.0000  0.5000 )  
               a(2) = (  0.0000  0.5000  0.5000 )  
               a(3) = ( -0.5000  0.5000  0.0000 )  

     reciprocal axes: (cart. coord. in units 2 pi/alat)
               b(1) = ( -1.0000 -1.0000  1.0000 )  
               b(2) = (  1.0000  1.0000  1.0000 )  
               b(3) = ( -1.0000  1.0000 -1.0000 )  


     Atoms inside the unit cell: 

     Cartesian axes

     site n.  atom      mass           positions (alat units)
        1     Al  26.9800   tau(    1) = (    0.00000    0.00000    0.00000  )

     Computing dynamical matrix for 
                    q = (   0.6666667  -0.0000000   0.6666667 )

      4 Sym.Ops. (no q -> -q+G )


     G cutoff =   85.4897  (    869 G-vectors)     FFT grid: ( 15, 15, 15)

     number of k points=   450  Marzari-Vanderbilt smearing, width (Ry)=  0.0500

     PseudoPot. # 1 for Al read from file:
     /home/k-tsukamoto/win/Documents/QuantumEspresso/q-e-qe-6.7.0/pseudo/Al.pz-vbc.UPF
     MD5 check sum: f06ceae8da0fe5c02c98e3688433298c
     Pseudo is Norm-conserving, Zval =  3.0
     Generated by new atomic code, or converted to UPF format
     Using radial grid of  171 points,  2 beta functions with: 
                l(1) =   0
                l(2) =   1

     Mode symmetry, C_2v (mm2)  point group:


     Atomic displacements:
     There are    3 irreducible representations

     Representation     1      1 modes -  To be done

     Representation     2      1 modes -  To be done

     Representation     3      1 modes -  To be done



     Alpha used in Ewald sum =   0.7000
     PHONON       :     10.83s CPU     12.39s WALL



     Representation #   1 mode #   1

     Self-consistent Calculation

      iter #   1 total cpu time :    12.6 secs   av.it.:   4.0
      thresh= 1.000E-02 alpha_mix =  0.700 |ddv_scf|^2 =  7.091E-05

      iter #   2 total cpu time :    12.8 secs   av.it.:   5.4
      thresh= 8.421E-04 alpha_mix =  0.700 |ddv_scf|^2 =  4.682E-05

      iter #   3 total cpu time :    13.0 secs   av.it.:   4.8
      thresh= 6.843E-04 alpha_mix =  0.700 |ddv_scf|^2 =  5.315E-08

      iter #   4 total cpu time :    13.1 secs   av.it.:   5.7
      thresh= 2.305E-05 alpha_mix =  0.700 |ddv_scf|^2 =  1.623E-09

      iter #   5 total cpu time :    13.4 secs   av.it.:   5.4
      thresh= 4.028E-06 alpha_mix =  0.700 |ddv_scf|^2 =  4.857E-12

      iter #   6 total cpu time :    13.5 secs   av.it.:   5.6
      thresh= 2.204E-07 alpha_mix =  0.700 |ddv_scf|^2 =  1.071E-14

     End of self-consistent calculation

     Convergence has been achieved 


     Representation #   2 mode #   2

     Self-consistent Calculation

      iter #   1 total cpu time :    13.8 secs   av.it.:   3.3
      thresh= 1.000E-02 alpha_mix =  0.700 |ddv_scf|^2 =  4.690E-07

      iter #   2 total cpu time :    14.0 secs   av.it.:   5.3
      thresh= 6.848E-05 alpha_mix =  0.700 |ddv_scf|^2 =  1.429E-08

      iter #   3 total cpu time :    14.2 secs   av.it.:   4.9
      thresh= 1.195E-05 alpha_mix =  0.700 |ddv_scf|^2 =  9.095E-10

      iter #   4 total cpu time :    14.4 secs   av.it.:   4.9
      thresh= 3.016E-06 alpha_mix =  0.700 |ddv_scf|^2 =  1.078E-13

     End of self-consistent calculation

     Convergence has been achieved 


     Representation #   3 mode #   3

     Self-consistent Calculation

      iter #   1 total cpu time :    14.7 secs   av.it.:   3.7
      thresh= 1.000E-02 alpha_mix =  0.700 |ddv_scf|^2 =  2.452E-05

      iter #   2 total cpu time :    14.9 secs   av.it.:   5.3
      thresh= 4.951E-04 alpha_mix =  0.700 |ddv_scf|^2 =  5.585E-06

      iter #   3 total cpu time :    15.1 secs   av.it.:   5.2
      thresh= 2.363E-04 alpha_mix =  0.700 |ddv_scf|^2 =  4.388E-09

      iter #   4 total cpu time :    15.2 secs   av.it.:   5.3
      thresh= 6.624E-06 alpha_mix =  0.700 |ddv_scf|^2 =  8.240E-12

      iter #   5 total cpu time :    15.4 secs   av.it.:   5.4
      thresh= 2.871E-07 alpha_mix =  0.700 |ddv_scf|^2 =  2.511E-14

     End of self-consistent calculation

     Convergence has been achieved 

     Number of q in the star =   12
     List of q in the star:
          1   0.666666667   0.000000000   0.666666667
          2   0.666666667   0.000000000  -0.666666667
          3  -0.666666667   0.000000000  -0.666666667
          4  -0.666666667   0.000000000   0.666666667
          5   0.000000000  -0.666666667   0.666666667
          6  -0.666666667   0.666666667   0.000000000
          7  -0.666666667  -0.666666667   0.000000000
          8   0.666666667   0.666666667   0.000000000
          9   0.666666667  -0.666666667   0.000000000
         10   0.000000000   0.666666667   0.666666667
         11   0.000000000   0.666666667  -0.666666667
         12   0.000000000  -0.666666667  -0.666666667

     Diagonalizing the dynamical matrix

     q = (    0.666666667  -0.000000000   0.666666667 ) 

 **************************************************************************
     freq (    1) =       5.608327 [THz] =     187.073652 [cm-1]
     freq (    2) =       7.833520 [THz] =     261.298116 [cm-1]
     freq (    3) =       8.170074 [THz] =     272.524334 [cm-1]
 **************************************************************************

     Mode symmetry, C_2v (mm2)  point group:

     freq (   1-   1) =        187.1  [cm-1]   --> B_1  D_3  S_3      
     freq (   2-   2) =        261.3  [cm-1]   --> B_2  D_4  S_4      
     freq (   3-   3) =        272.5  [cm-1]   --> A_1  D_1  S_1      
     electron-phonon interaction  ...

     Gaussian Broadening:   0.005 Ry, ngauss=   0
     DOS =  4.656132 states/spin/Ry/Unit Cell at Ef=  8.285286 eV
     lambda(    1)=  0.0539   gamma=    7.53 GHz
     lambda(    2)=  0.2371   gamma=   64.69 GHz
     lambda(    3)=  0.8454   gamma=  250.91 GHz
     Gaussian Broadening:   0.010 Ry, ngauss=   0
     DOS =  3.536242 states/spin/Ry/Unit Cell at Ef=  8.285333 eV
     lambda(    1)=  0.0795   gamma=    8.44 GHz
     lambda(    2)=  0.2453   gamma=   50.82 GHz
     lambda(    3)=  0.3755   gamma=   84.64 GHz
     Gaussian Broadening:   0.015 Ry, ngauss=   0
     DOS =  3.064761 states/spin/Ry/Unit Cell at Ef=  8.283433 eV
     lambda(    1)=  0.0705   gamma=    6.49 GHz
     lambda(    2)=  0.2232   gamma=   40.08 GHz
     lambda(    3)=  0.2448   gamma=   47.81 GHz
     Gaussian Broadening:   0.020 Ry, ngauss=   0
     DOS =  2.921395 states/spin/Ry/Unit Cell at Ef=  8.282380 eV
     lambda(    1)=  0.0622   gamma=    5.46 GHz
     lambda(    2)=  0.2011   gamma=   34.42 GHz
     lambda(    3)=  0.1937   gamma=   36.08 GHz
     Gaussian Broadening:   0.025 Ry, ngauss=   0
     DOS =  2.856557 states/spin/Ry/Unit Cell at Ef=  8.281894 eV
     lambda(    1)=  0.0602   gamma=    5.17 GHz
     lambda(    2)=  0.1864   gamma=   31.19 GHz
     lambda(    3)=  0.1771   gamma=   32.26 GHz
     Gaussian Broadening:   0.030 Ry, ngauss=   0
     DOS =  2.807991 states/spin/Ry/Unit Cell at Ef=  8.281934 eV
     lambda(    1)=  0.0602   gamma=    5.07 GHz
     lambda(    2)=  0.1772   gamma=   29.16 GHz
     lambda(    3)=  0.1704   gamma=   30.50 GHz
     Gaussian Broadening:   0.035 Ry, ngauss=   0
     DOS =  2.767611 states/spin/Ry/Unit Cell at Ef=  8.282348 eV
     lambda(    1)=  0.0602   gamma=    5.00 GHz
     lambda(    2)=  0.1724   gamma=   27.96 GHz
     lambda(    3)=  0.1657   gamma=   29.24 GHz
     Gaussian Broadening:   0.040 Ry, ngauss=   0
     DOS =  2.735973 states/spin/Ry/Unit Cell at Ef=  8.282832 eV
     lambda(    1)=  0.0599   gamma=    4.92 GHz
     lambda(    2)=  0.1706   gamma=   27.36 GHz
     lambda(    3)=  0.1618   gamma=   28.22 GHz
     Gaussian Broadening:   0.045 Ry, ngauss=   0
     DOS =  2.713291 states/spin/Ry/Unit Cell at Ef=  8.283104 eV
     lambda(    1)=  0.0596   gamma=    4.86 GHz
     lambda(    2)=  0.1708   gamma=   27.16 GHz
     lambda(    3)=  0.1586   gamma=   27.43 GHz
     Gaussian Broadening:   0.050 Ry, ngauss=   0
     DOS =  2.698245 states/spin/Ry/Unit Cell at Ef=  8.283001 eV
     lambda(    1)=  0.0593   gamma=    4.81 GHz
     lambda(    2)=  0.1719   gamma=   27.18 GHz
     lambda(    3)=  0.1561   gamma=   26.84 GHz


     Number of q in the star =   12
     List of q in the star:
          1   0.666666667   0.000000000   0.666666667
          2   0.666666667   0.000000000  -0.666666667
          3  -0.666666667   0.000000000  -0.666666667
          4  -0.666666667   0.000000000   0.666666667
          5   0.000000000  -0.666666667   0.666666667
          6  -0.666666667   0.666666667   0.000000000
          7  -0.666666667  -0.666666667   0.000000000
          8   0.666666667   0.666666667   0.000000000
          9   0.666666667  -0.666666667   0.000000000
         10   0.000000000   0.666666667   0.666666667
         11   0.000000000   0.666666667  -0.666666667
         12   0.000000000  -0.666666667  -0.666666667

     init_run     :      0.03s CPU      0.02s WALL (       3 calls)
     electrons    :      4.30s CPU      4.88s WALL (       3 calls)

     Called by init_run:
     wfcinit      :      0.00s CPU      0.00s WALL (       3 calls)
     potinit      :      0.00s CPU      0.00s WALL (       3 calls)
     hinit0       :      0.02s CPU      0.01s WALL (       3 calls)

     Called by electrons:
     c_bands      :      4.28s CPU      4.88s WALL (       3 calls)
     v_of_rho     :      0.00s CPU      0.00s WALL (       4 calls)

     Called by c_bands:
     init_us_2    :      0.09s CPU      0.15s WALL (   11470 calls)
     cegterg      :      4.05s CPU      4.35s WALL (    1134 calls)

     Called by *egterg:
     cdiaghg      :      0.86s CPU      0.92s WALL (   15992 calls)
     h_psi        :      5.94s CPU      6.63s WALL (   63176 calls)
     g_psi        :      0.02s CPU      0.03s WALL (   14942 calls)

     Called by h_psi:
     h_psi:calbec :      0.09s CPU      0.23s WALL (   63176 calls)
     vloc_psi     :      5.64s CPU      5.97s WALL (   63176 calls)
     add_vuspsi   :      0.12s CPU      0.13s WALL (   63176 calls)

     General routines
     calbec       :      0.14s CPU      0.24s WALL (  121581 calls)
     fft          :      0.00s CPU      0.01s WALL (     193 calls)
     ffts         :      0.02s CPU      0.04s WALL (    1766 calls)
     fftw         :      6.25s CPU      6.70s WALL (  391170 calls)
     davcio       :      0.03s CPU      0.41s WALL (   44845 calls)


     PHONON       :     14.31s CPU     16.59s WALL

     INITIALIZATION: 
     phq_setup    :      0.00s CPU      0.02s WALL (       4 calls)
     phq_init     :      0.05s CPU      0.07s WALL (       4 calls)

     phq_init     :      0.05s CPU      0.07s WALL (       4 calls)
     init_vloc    :      0.00s CPU      0.00s WALL (       4 calls)
     init_us_1    :      0.00s CPU      0.00s WALL (       4 calls)

     DYNAMICAL MATRIX:
     dynmat0      :      0.02s CPU      0.04s WALL (       4 calls)
     phqscf       :      5.81s CPU      7.41s WALL (       4 calls)
     dynmatrix    :      0.00s CPU      0.01s WALL (       4 calls)

     phqscf       :      5.81s CPU      7.41s WALL (       4 calls)
     solve_linter :      5.75s CPU      7.31s WALL (       8 calls)
     drhodv       :      0.06s CPU      0.07s WALL (       8 calls)

     dynmat0      :      0.02s CPU      0.04s WALL (       4 calls)
     dynmat_us    :      0.00s CPU      0.03s WALL (       4 calls)
     d2ionq       :      0.00s CPU      0.00s WALL (       4 calls)

     dynmat_us    :      0.00s CPU      0.03s WALL (       4 calls)

     phqscf       :      5.81s CPU      7.41s WALL (       4 calls)
     solve_linter :      5.75s CPU      7.31s WALL (       8 calls)

     solve_linter :      5.75s CPU      7.31s WALL (       8 calls)
     dvqpsi_us    :      0.34s CPU      0.50s WALL (    1680 calls)
     ortho        :      0.03s CPU      0.05s WALL (    8055 calls)
     cgsolve      :      3.55s CPU      4.24s WALL (    8055 calls)
     incdrhoscf   :      0.77s CPU      0.70s WALL (    8055 calls)
     vpsifft      :      0.42s CPU      0.54s WALL (    6375 calls)
     dv_of_drho   :      0.00s CPU      0.01s WALL (      53 calls)
     mix_pot      :      0.00s CPU      0.04s WALL (      39 calls)
     ef_shift     :      0.00s CPU      0.00s WALL (       4 calls)
     localdos     :      0.00s CPU      0.00s WALL (       1 calls)
     symdvscf     :      0.05s CPU      0.04s WALL (      39 calls)

     dvqpsi_us    :      0.34s CPU      0.50s WALL (    1680 calls)
     dvqpsi_us_on :      0.05s CPU      0.03s WALL (    1680 calls)

     cgsolve      :      3.55s CPU      4.24s WALL (    8055 calls)
     ch_psi       :      3.44s CPU      4.10s WALL (   46050 calls)

     ch_psi       :      3.44s CPU      4.10s WALL (   46050 calls)
     h_psi        :      5.94s CPU      6.63s WALL (   63176 calls)
     last         :      0.17s CPU      0.28s WALL (   46050 calls)

     h_psi        :      5.94s CPU      6.63s WALL (   63176 calls)
     add_vuspsi   :      0.12s CPU      0.13s WALL (   63176 calls)

     incdrhoscf   :      0.77s CPU      0.70s WALL (    8055 calls)


      Electron-phonon coupling
     elphel       :      0.47s CPU      0.61s WALL (       8 calls)
     elphsum      :      4.03s CPU      4.03s WALL (       4 calls)

      General routines
     calbec       :      0.14s CPU      0.24s WALL (  121581 calls)
     fft          :      0.00s CPU      0.01s WALL (     193 calls)
     ffts         :      0.02s CPU      0.04s WALL (    1766 calls)
     fftw         :      6.25s CPU      6.70s WALL (  391170 calls)
     davcio       :      0.03s CPU      0.41s WALL (   44845 calls)
     write_rec    :      0.00s CPU      0.10s WALL (      47 calls)


     PHONON       :     14.31s CPU     16.59s WALL


   This run was terminated on:  20:13:34  26Jun2021            

=------------------------------------------------------------------------------=
   JOB DONE.
=------------------------------------------------------------------------------=
