
     Program PWSCF v.6.7MaX starts on 26Jun2021 at 20:12:46 

     This program is part of the open-source Quantum ESPRESSO suite
     for quantum simulation of materials; please cite
         "P. Giannozzi et al., J. Phys.:Condens. Matter 21 395502 (2009);
         "P. Giannozzi et al., J. Phys.:Condens. Matter 29 465901 (2017);
          URL http://www.quantum-espresso.org", 
     in publications or presentations arising from this work. More details at
     http://www.quantum-espresso.org/quote

     Serial version
     Reading input from al.scf.fit.in
     Message from routine read_cards :
     DEPRECATED: no units specified in ATOMIC_POSITIONS card
     Message from routine read_cards :
     ATOMIC_POSITIONS: units set to alat

     Current dimensions of program PWSCF are:
     Max number of different atomic species (ntypx) = 10
     Max number of k-points (npk) =  40000
     Max angular momentum in pseudopotentials (lmaxx) =  3

     G-vector sticks info
     --------------------
     sticks:   dense  smooth     PW     G-vecs:    dense   smooth      PW
     Sum         121     121     55                  869      869     229



     bravais-lattice index     =            2
     lattice parameter (alat)  =       7.5000  a.u.
     unit-cell volume          =     105.4688 (a.u.)^3
     number of atoms/cell      =            1
     number of atomic types    =            1
     number of electrons       =         3.00
     number of Kohn-Sham states=            6
     kinetic-energy cutoff     =      15.0000  Ry
     charge density cutoff     =      60.0000  Ry
     scf convergence threshold =      1.0E-10
     mixing beta               =       0.7000
     number of iterations used =            8  plain     mixing
     Exchange-correlation= SLA  PZ   NOGX NOGC
                           (   1   1   0   0   0   0   0)

     celldm(1)=   7.500000  celldm(2)=   0.000000  celldm(3)=   0.000000
     celldm(4)=   0.000000  celldm(5)=   0.000000  celldm(6)=   0.000000

     crystal axes: (cart. coord. in units of alat)
               a(1) = (  -0.500000   0.000000   0.500000 )  
               a(2) = (   0.000000   0.500000   0.500000 )  
               a(3) = (  -0.500000   0.500000   0.000000 )  

     reciprocal axes: (cart. coord. in units 2 pi/alat)
               b(1) = ( -1.000000 -1.000000  1.000000 )  
               b(2) = (  1.000000  1.000000  1.000000 )  
               b(3) = ( -1.000000  1.000000 -1.000000 )  


     PseudoPot. # 1 for Al read from file:
     /home/k-tsukamoto/win/Documents/QuantumEspresso/q-e-qe-6.7.0/pseudo/Al.pz-vbc.UPF
     MD5 check sum: f06ceae8da0fe5c02c98e3688433298c
     Pseudo is Norm-conserving, Zval =  3.0
     Generated by new atomic code, or converted to UPF format
     Using radial grid of  171 points,  2 beta functions with: 
                l(1) =   0
                l(2) =   1

     atomic species   valence    mass     pseudopotential
        Al             3.00    26.98000     Al( 1.00)

     48 Sym. Ops., with inversion, found



   Cartesian axes

     site n.     atom                  positions (alat units)
         1           Al  tau(   1) = (   0.0000000   0.0000000   0.0000000  )

     number of k points=   195  Marzari-Vanderbilt smearing, width (Ry)=  0.0500

     Number of k-points >= 100: set verbosity='high' to print them.

     Dense  grid:      869 G-vectors     FFT dimensions: (  15,  15,  15)

     Estimated max dynamical RAM per process >       2.55 MB

     Initial potential from superposition of free atoms

     starting charge    2.99794, renormalised to    3.00000
     Starting wfcs are    4 randomized atomic wfcs +    2 random wfcs

     total cpu time spent up to now is        0.1 secs

     Self-consistent Calculation

     iteration #  1     ecut=    15.00 Ry     beta= 0.70
     Davidson diagonalization with overlap
     ethr =  1.00E-02,  avg # of iterations =  5.3

     Threshold (ethr) on eigenvalues was too large:
     Diagonalizing with lowered threshold

     Davidson diagonalization with overlap
     ethr =  1.97E-04,  avg # of iterations =  1.8

     total cpu time spent up to now is        0.6 secs

     total energy              =      -4.18716330 Ry
     estimated scf accuracy    <       0.00588107 Ry

     iteration #  2     ecut=    15.00 Ry     beta= 0.70
     Davidson diagonalization with overlap
     ethr =  1.96E-04,  avg # of iterations =  1.0

     total cpu time spent up to now is        0.8 secs

     total energy              =      -4.18716037 Ry
     estimated scf accuracy    <       0.00045497 Ry

     iteration #  3     ecut=    15.00 Ry     beta= 0.70
     Davidson diagonalization with overlap
     ethr =  1.52E-05,  avg # of iterations =  1.8

     total cpu time spent up to now is        1.1 secs

     total energy              =      -4.18716322 Ry
     estimated scf accuracy    <       0.00000032 Ry

     iteration #  4     ecut=    15.00 Ry     beta= 0.70
     Davidson diagonalization with overlap
     ethr =  1.06E-08,  avg # of iterations =  2.3

     total cpu time spent up to now is        1.3 secs

     total energy              =      -4.18716324 Ry
     estimated scf accuracy    <          3.9E-09 Ry

     iteration #  5     ecut=    15.00 Ry     beta= 0.70
     Davidson diagonalization with overlap
     ethr =  1.31E-10,  avg # of iterations =  1.4

     total cpu time spent up to now is        1.5 secs

     End of self-consistent calculation

     Number of k-points >= 100: set verbosity='high' to print the bands.

     the Fermi energy is     8.2921 ev

!    total energy              =      -4.18716324 Ry
     estimated scf accuracy    <          7.9E-12 Ry
     smearing contrib. (-TS)   =      -0.00032628 Ry
     internal energy E=F+TS    =      -4.18683697 Ry

     The total energy is F=E-TS. E is the sum of the following terms:
     one-electron contribution =       2.93979812 Ry
     hartree contribution      =       0.00984385 Ry
     xc contribution           =      -1.63464441 Ry
     ewald contribution        =      -5.50183453 Ry

     convergence has been achieved in   5 iterations

     Writing output data file /home/k-tsukamoto/win/Documents/QuantumEspresso/q-e-qe-6.7.0/tempdir/al_lead.save/

     init_run     :      0.06s CPU      0.07s WALL (       1 calls)
     electrons    :      0.92s CPU      1.40s WALL (       1 calls)

     Called by init_run:
     wfcinit      :      0.06s CPU      0.06s WALL (       1 calls)
     potinit      :      0.00s CPU      0.00s WALL (       1 calls)
     hinit0       :      0.00s CPU      0.00s WALL (       1 calls)

     Called by electrons:
     c_bands      :      0.73s CPU      1.24s WALL (       6 calls)
     sum_band     :      0.19s CPU      0.16s WALL (       6 calls)
     v_of_rho     :      0.00s CPU      0.00s WALL (       6 calls)
     mix_rho      :      0.00s CPU      0.00s WALL (       6 calls)

     Called by c_bands:
     init_us_2    :      0.06s CPU      0.03s WALL (    2535 calls)
     cegterg      :      0.69s CPU      0.91s WALL (    1170 calls)

     Called by *egterg:
     cdiaghg      :      0.06s CPU      0.10s WALL (    3614 calls)
     h_psi        :      0.59s CPU      0.75s WALL (    4004 calls)
     g_psi        :      0.02s CPU      0.01s WALL (    2639 calls)

     Called by h_psi:
     h_psi:calbec :      0.02s CPU      0.02s WALL (    4004 calls)
     vloc_psi     :      0.56s CPU      0.70s WALL (    4004 calls)
     add_vuspsi   :      0.02s CPU      0.01s WALL (    4004 calls)

     General routines
     calbec       :      0.02s CPU      0.01s WALL (    4004 calls)
     fft          :      0.00s CPU      0.00s WALL (      18 calls)
     ffts         :      0.00s CPU      0.00s WALL (       6 calls)
     fftw         :      0.56s CPU      0.71s WALL (   44364 calls)


     PWSCF        :      1.00s CPU      1.59s WALL


   This run was terminated on:  20:12:47  26Jun2021            

=------------------------------------------------------------------------------=
   JOB DONE.
=------------------------------------------------------------------------------=
