
     Program PWSCF v.6.7MaX starts on 26Jun2021 at 20:13: 4 

     This program is part of the open-source Quantum ESPRESSO suite
     for quantum simulation of materials; please cite
         "P. Giannozzi et al., J. Phys.:Condens. Matter 21 395502 (2009);
         "P. Giannozzi et al., J. Phys.:Condens. Matter 29 465901 (2017);
          URL http://www.quantum-espresso.org", 
     in publications or presentations arising from this work. More details at
     http://www.quantum-espresso.org/quote

     Serial version
     Reading input from al.scf.in
     Message from routine read_cards :
     DEPRECATED: no units specified in ATOMIC_POSITIONS card
     Message from routine read_cards :
     ATOMIC_POSITIONS: units set to alat

     Current dimensions of program PWSCF are:
     Max number of different atomic species (ntypx) = 10
     Max number of k-points (npk) =  40000
     Max angular momentum in pseudopotentials (lmaxx) =  3

     G-vector sticks info
     --------------------
     sticks:   dense  smooth     PW     G-vecs:    dense   smooth      PW
     Sum         121     121     43                  869      869     181



     bravais-lattice index     =            2
     lattice parameter (alat)  =       7.5000  a.u.
     unit-cell volume          =     105.4688 (a.u.)^3
     number of atoms/cell      =            1
     number of atomic types    =            1
     number of electrons       =         3.00
     number of Kohn-Sham states=            6
     kinetic-energy cutoff     =      15.0000  Ry
     charge density cutoff     =      60.0000  Ry
     scf convergence threshold =      1.0E-10
     mixing beta               =       0.7000
     number of iterations used =            8  plain     mixing
     Exchange-correlation= SLA  PZ   NOGX NOGC
                           (   1   1   0   0   0   0   0)

     celldm(1)=   7.500000  celldm(2)=   0.000000  celldm(3)=   0.000000
     celldm(4)=   0.000000  celldm(5)=   0.000000  celldm(6)=   0.000000

     crystal axes: (cart. coord. in units of alat)
               a(1) = (  -0.500000   0.000000   0.500000 )  
               a(2) = (   0.000000   0.500000   0.500000 )  
               a(3) = (  -0.500000   0.500000   0.000000 )  

     reciprocal axes: (cart. coord. in units 2 pi/alat)
               b(1) = ( -1.000000 -1.000000  1.000000 )  
               b(2) = (  1.000000  1.000000  1.000000 )  
               b(3) = ( -1.000000  1.000000 -1.000000 )  


     PseudoPot. # 1 for Al read from file:
     /home/k-tsukamoto/win/Documents/QuantumEspresso/q-e-qe-6.7.0/pseudo/Al.pz-vbc.UPF
     MD5 check sum: f06ceae8da0fe5c02c98e3688433298c
     Pseudo is Norm-conserving, Zval =  3.0
     Generated by new atomic code, or converted to UPF format
     Using radial grid of  171 points,  2 beta functions with: 
                l(1) =   0
                l(2) =   1

     atomic species   valence    mass     pseudopotential
        Al             3.00    26.98000     Al( 1.00)

     48 Sym. Ops., with inversion, found



   Cartesian axes

     site n.     atom                  positions (alat units)
         1           Al  tau(   1) = (   0.0000000   0.0000000   0.0000000  )

     number of k points=    35  Marzari-Vanderbilt smearing, width (Ry)=  0.0500
                       cart. coord. in units 2pi/alat
        k(    1) = (   0.0000000   0.0000000   0.0000000), wk =   0.0027435
        k(    2) = (  -0.1111111   0.1111111  -0.1111111), wk =   0.0219479
        k(    3) = (  -0.2222222   0.2222222  -0.2222222), wk =   0.0219479
        k(    4) = (  -0.3333333   0.3333333  -0.3333333), wk =   0.0219479
        k(    5) = (  -0.4444444   0.4444444  -0.4444444), wk =   0.0219479
        k(    6) = (   0.0000000   0.2222222   0.0000000), wk =   0.0164609
        k(    7) = (  -0.1111111   0.3333333  -0.1111111), wk =   0.0658436
        k(    8) = (  -0.2222222   0.4444444  -0.2222222), wk =   0.0658436
        k(    9) = (  -0.3333333   0.5555556  -0.3333333), wk =   0.0658436
        k(   10) = (   0.5555556  -0.3333333   0.5555556), wk =   0.0658436
        k(   11) = (   0.4444444  -0.2222222   0.4444444), wk =   0.0658436
        k(   12) = (   0.3333333  -0.1111111   0.3333333), wk =   0.0658436
        k(   13) = (   0.2222222  -0.0000000   0.2222222), wk =   0.0329218
        k(   14) = (   0.0000000   0.4444444   0.0000000), wk =   0.0164609
        k(   15) = (  -0.1111111   0.5555556  -0.1111111), wk =   0.0658436
        k(   16) = (  -0.2222222   0.6666667  -0.2222222), wk =   0.0658436
        k(   17) = (   0.6666667  -0.2222222   0.6666667), wk =   0.0658436
        k(   18) = (   0.5555556  -0.1111111   0.5555556), wk =   0.0658436
        k(   19) = (   0.4444444   0.0000000   0.4444444), wk =   0.0329218
        k(   20) = (   0.0000000   0.6666667   0.0000000), wk =   0.0164609
        k(   21) = (  -0.1111111   0.7777778  -0.1111111), wk =   0.0658436
        k(   22) = (   0.7777778  -0.1111111   0.7777778), wk =   0.0658436
        k(   23) = (   0.6666667  -0.0000000   0.6666667), wk =   0.0329218
        k(   24) = (   0.0000000   0.8888889   0.0000000), wk =   0.0164609
        k(   25) = (   0.8888889   0.0000000   0.8888889), wk =   0.0329218
        k(   26) = (  -0.2222222   0.4444444   0.0000000), wk =   0.0658436
        k(   27) = (  -0.3333333   0.5555556  -0.1111111), wk =   0.1316872
        k(   28) = (   0.5555556  -0.3333333   0.7777778), wk =   0.1316872
        k(   29) = (  -0.2222222   0.6666667   0.0000000), wk =   0.0658436
        k(   30) = (   0.6666667  -0.2222222   0.8888889), wk =   0.1316872
        k(   31) = (   0.5555556  -0.1111111   0.7777778), wk =   0.1316872
        k(   32) = (   0.4444444   0.0000000   0.6666667), wk =   0.0658436
        k(   33) = (   0.7777778  -0.1111111   1.0000000), wk =   0.0658436
        k(   34) = (   0.6666667  -0.0000000   0.8888889), wk =   0.0658436
        k(   35) = (   0.5555556  -0.1111111   1.0000000), wk =   0.0658436

     Dense  grid:      869 G-vectors     FFT dimensions: (  15,  15,  15)

     Estimated max dynamical RAM per process >       1.04 MB

     Initial potential from superposition of free atoms

     starting charge    2.99794, renormalised to    3.00000
     Starting wfcs are    4 randomized atomic wfcs +    2 random wfcs

     total cpu time spent up to now is        0.0 secs

     Self-consistent Calculation

     iteration #  1     ecut=    15.00 Ry     beta= 0.70
     Davidson diagonalization with overlap
     ethr =  1.00E-02,  avg # of iterations =  5.3

     Threshold (ethr) on eigenvalues was too large:
     Diagonalizing with lowered threshold

     Davidson diagonalization with overlap
     ethr =  1.98E-04,  avg # of iterations =  2.1

     total cpu time spent up to now is        0.1 secs

     total energy              =      -4.18540861 Ry
     estimated scf accuracy    <       0.00591685 Ry

     iteration #  2     ecut=    15.00 Ry     beta= 0.70
     Davidson diagonalization with overlap
     ethr =  1.97E-04,  avg # of iterations =  1.0

     total cpu time spent up to now is        0.2 secs

     total energy              =      -4.18540539 Ry
     estimated scf accuracy    <       0.00045747 Ry

     iteration #  3     ecut=    15.00 Ry     beta= 0.70
     Davidson diagonalization with overlap
     ethr =  1.52E-05,  avg # of iterations =  1.9

     total cpu time spent up to now is        0.2 secs

     total energy              =      -4.18540825 Ry
     estimated scf accuracy    <       0.00000032 Ry

     iteration #  4     ecut=    15.00 Ry     beta= 0.70
     Davidson diagonalization with overlap
     ethr =  1.05E-08,  avg # of iterations =  1.9

     total cpu time spent up to now is        0.2 secs

     total energy              =      -4.18540827 Ry
     estimated scf accuracy    <          3.9E-09 Ry

     iteration #  5     ecut=    15.00 Ry     beta= 0.70
     Davidson diagonalization with overlap
     ethr =  1.31E-10,  avg # of iterations =  1.4

     total cpu time spent up to now is        0.3 secs

     End of self-consistent calculation

          k = 0.0000 0.0000 0.0000 (   113 PWs)   bands (ev):

    -3.1909  21.1781  21.1781  22.5550  22.5550  22.5550

          k =-0.1111 0.1111-0.1111 (   113 PWs)   bands (ev):

    -2.8393  17.3114  20.2994  20.2994  23.2902  23.9381

          k =-0.2222 0.2222-0.2222 (   107 PWs)   bands (ev):

    -1.7891  12.8481  19.5102  19.5102  23.0088  23.8523

          k =-0.3333 0.3333-0.3333 (    99 PWs)   bands (ev):

    -0.0653   8.8008  19.2567  19.2567  21.9142  21.9142

          k =-0.4444 0.4444-0.4444 (   108 PWs)   bands (ev):

     2.2933   5.2677  19.5613  19.5613  20.4494  20.4494

          k = 0.0000 0.2222 0.0000 (   109 PWs)   bands (ev):

    -2.7208  18.7055  18.7055  18.9397  21.6821  24.0150

          k =-0.1111 0.3333-0.1111 (   102 PWs)   bands (ev):

    -1.9031  14.5105  17.6736  19.1612  21.1227  22.6663

          k =-0.2222 0.4444-0.2222 (   105 PWs)   bands (ev):

    -0.4092  10.3556  17.2075  18.7161  19.0402  25.0936

          k =-0.3333 0.5556-0.3333 (   104 PWs)   bands (ev):

     1.7370   6.6671  17.1308  17.3188  19.0968  23.5039

          k = 0.5556-0.3333 0.5556 (   105 PWs)   bands (ev):

     3.4988   4.5169  16.0320  18.0020  19.8439  22.4344

          k = 0.4444-0.2222 0.4444 (   101 PWs)   bands (ev):

     0.9527   7.8352  15.5374  19.2671  21.1839  21.9398

          k = 0.3333-0.1111 0.3333 (   104 PWs)   bands (ev):

    -0.9807  11.6633  15.6685  21.0546  22.0315  23.0665

          k = 0.2222-0.0000 0.2222 (   105 PWs)   bands (ev):

    -2.2530  15.5238  16.7978  22.0924  22.8007  24.2203

          k = 0.0000 0.4444 0.0000 (   101 PWs)   bands (ev):

    -1.3237  16.3222  16.4317  16.4317  18.0943  20.0291

          k =-0.1111 0.5556-0.1111 (   101 PWs)   bands (ev):

    -0.0643  12.4329  15.5397  15.7671  17.2162  21.0026

          k =-0.2222 0.6667-0.2222 (   103 PWs)   bands (ev):

     1.8495   8.6613  13.6076  15.6786  17.3799  24.0285

          k = 0.6667-0.2222 0.6667 (   102 PWs)   bands (ev):

     4.3588   5.3897  12.2832  16.1643  17.9927  25.9216

          k = 0.5556-0.1111 0.5556 (   104 PWs)   bands (ev):

     2.6261   7.4575  11.6252  17.2278  19.1929  25.2392

          k = 0.4444 0.0000 0.4444 (   101 PWs)   bands (ev):

     0.5015  10.5104  12.1598  18.8745  20.9506  24.8140

          k = 0.0000 0.6667 0.0000 (   104 PWs)   bands (ev):

     0.9519  12.7486  14.5084  14.9079  14.9079  18.5908

          k =-0.1111 0.7778-0.1111 (   105 PWs)   bands (ev):

     2.6201  10.4925  11.2588  14.6246  15.9187  19.9060

          k = 0.7778-0.1111 0.7778 (   102 PWs)   bands (ev):

     4.8752   7.7653   9.1113  14.9168  16.5243  23.3492

          k = 0.6667-0.0000 0.6667 (   101 PWs)   bands (ev):

     4.9146   7.1852   8.7434  15.7825  17.5821  27.3736

          k = 0.0000 0.8889 0.0000 (   108 PWs)   bands (ev):

     4.0155   8.1506  13.5897  14.1500  14.1500  17.7978

          k = 0.8889 0.0000 0.8889 (   102 PWs)   bands (ev):

     5.5363   6.8693  10.7858  14.2485  15.4809  19.5275

          k =-0.2222 0.4444 0.0000 (   100 PWs)   bands (ev):

    -0.8640  13.0220  14.5109  18.5123  20.5487  22.3960

          k =-0.3333 0.5556-0.1111 (   102 PWs)   bands (ev):

     0.8400   9.5673  13.6604  16.4152  21.0175  23.7620

          k = 0.5556-0.3333 0.7778 (   100 PWs)   bands (ev):

     3.1770   6.1239  13.8595  14.9521  21.3992  22.4698

          k =-0.2222 0.6667 0.0000 (   102 PWs)   bands (ev):

     1.4033  11.3459  12.6487  13.4992  18.9297  21.1114

          k = 0.6667-0.2222 0.8889 (   105 PWs)   bands (ev):

     3.4993   8.2894  11.3439  12.6046  19.8767  23.7851

          k = 0.5556-0.1111 0.7778 (   105 PWs)   bands (ev):

     5.2169   6.1982  10.3309  13.1923  20.7219  25.0627

          k = 0.4444 0.0000 0.6667 (   104 PWs)   bands (ev):

     2.7359   8.8426  10.4547  14.4988  22.0279  23.9638

          k = 0.7778-0.1111 1.0000 (   104 PWs)   bands (ev):

     4.4470   8.5652  10.5064  12.1930  18.1016  20.4004

          k = 0.6667-0.0000 0.8889 (   104 PWs)   bands (ev):

     6.3586   7.5128   8.1576  12.1118  19.4772  23.4817

          k = 0.5556-0.1111 1.0000 (   105 PWs)   bands (ev):

     5.7264   8.0107   9.2562  10.3537  23.1699  24.1380

     the Fermi energy is     8.3165 ev

!    total energy              =      -4.18540827 Ry
     estimated scf accuracy    <          8.2E-12 Ry
     smearing contrib. (-TS)   =      -0.00171780 Ry
     internal energy E=F+TS    =      -4.18369047 Ry

     The total energy is F=E-TS. E is the sum of the following terms:
     one-electron contribution =       2.94293350 Ry
     hartree contribution      =       0.00985854 Ry
     xc contribution           =      -1.63464798 Ry
     ewald contribution        =      -5.50183453 Ry

     convergence has been achieved in   5 iterations

     Writing output data file /home/k-tsukamoto/win/Documents/QuantumEspresso/q-e-qe-6.7.0/tempdir/al_lead.save/

     init_run     :      0.02s CPU      0.02s WALL (       1 calls)
     electrons    :      0.20s CPU      0.26s WALL (       1 calls)

     Called by init_run:
     wfcinit      :      0.02s CPU      0.01s WALL (       1 calls)
     potinit      :      0.00s CPU      0.00s WALL (       1 calls)
     hinit0       :      0.00s CPU      0.00s WALL (       1 calls)

     Called by electrons:
     c_bands      :      0.17s CPU      0.23s WALL (       6 calls)
     sum_band     :      0.02s CPU      0.03s WALL (       6 calls)
     v_of_rho     :      0.00s CPU      0.00s WALL (       6 calls)
     mix_rho      :      0.00s CPU      0.00s WALL (       6 calls)

     Called by c_bands:
     init_us_2    :      0.02s CPU      0.01s WALL (     455 calls)
     cegterg      :      0.16s CPU      0.17s WALL (     210 calls)

     Called by *egterg:
     cdiaghg      :      0.02s CPU      0.02s WALL (     652 calls)
     h_psi        :      0.16s CPU      0.13s WALL (     722 calls)
     g_psi        :      0.00s CPU      0.00s WALL (     477 calls)

     Called by h_psi:
     h_psi:calbec :      0.00s CPU      0.00s WALL (     722 calls)
     vloc_psi     :      0.12s CPU      0.13s WALL (     722 calls)
     add_vuspsi   :      0.03s CPU      0.00s WALL (     722 calls)

     General routines
     calbec       :      0.00s CPU      0.00s WALL (     722 calls)
     fft          :      0.00s CPU      0.00s WALL (      18 calls)
     ffts         :      0.00s CPU      0.00s WALL (       6 calls)
     fftw         :      0.08s CPU      0.13s WALL (    7988 calls)


     PWSCF        :      0.22s CPU      0.32s WALL


   This run was terminated on:  20:13: 4  26Jun2021            

=------------------------------------------------------------------------------=
   JOB DONE.
=------------------------------------------------------------------------------=
