
     Program MATDYN v.6.7MaX starts on 26Jun2021 at 20:14: 6 

     This program is part of the open-source Quantum ESPRESSO suite
     for quantum simulation of materials; please cite
         "P. Giannozzi et al., J. Phys.:Condens. Matter 21 395502 (2009);
         "P. Giannozzi et al., J. Phys.:Condens. Matter 29 465901 (2017);
          URL http://www.quantum-espresso.org", 
     in publications or presentations arising from this work. More details at
     http://www.quantum-espresso.org/quote

     Serial version
     Message from routine matdyn:
     Z* not found in file al.fc, TO-LO splitting at q=0 will be absent!
     Message from routine matdyn:
     Z* not found in file al.fc, TO-LO splitting at q=0 will be absent!

  Gamma lines for all modes [Rydberg] 

 Broadening   0.0050
       1
-0.000000000-0.000000000-0.000000000
       2
-0.000001101-0.000001101 0.000005877
       3
-0.000003591-0.000003591 0.000020699
       4
-0.000005532-0.000005532 0.000037593
       5
-0.000005071-0.000005071 0.000049367
       6
 0.000003617 0.000003617 0.000047907
       7
 0.000010193 0.000010193 0.000038477
       8
 0.000005474 0.000017694 0.000044246
       9
 0.000001947 0.000020701 0.000065594
      10
 0.000001754 0.000007300 0.000096160
      11
 0.000003042 0.000003042 0.000105239
      12
 0.000001225 0.000001225 0.000070980
      13
 0.000000278 0.000000278 0.000045657
      14
-0.000000176-0.000000176 0.000011930
      15
-0.000000000-0.000000000-0.000000000
      16
-0.000002082 0.000000772 0.000008855
      17
 0.000002060-0.000005564 0.000032966
      18
 0.000002338-0.000005970 0.000051370
      19
 0.000001383 0.000002779 0.000084768
      20
 0.000001639 0.000015295 0.000082776
      21
 0.000004420 0.000056898 0.000027582
 Broadening   0.0100
       1
-0.000000000 0.000000000-0.000000000
       2
-0.000000138-0.000000138 0.000001401
       3
-0.000000424-0.000000424 0.000005097
       4
-0.000000554-0.000000554 0.000009816
       5
-0.000000249-0.000000249 0.000014131
       6
 0.000001623 0.000001623 0.000018539
       7
 0.000002896 0.000002896 0.000019010
       8
 0.000002488 0.000006224 0.000019733
       9
 0.000002600 0.000008936 0.000026512
      10
 0.000002730 0.000004750 0.000037435
      11
 0.000002867 0.000002867 0.000041419
      12
 0.000000697 0.000000697 0.000027952
      13
-0.000000314-0.000000314 0.000017990
      14
-0.000000454-0.000000454 0.000004706
      15
-0.000000000 0.000000000-0.000000000
      16
-0.000000196-0.000000424 0.000003018
      17
-0.000001083 0.000000244 0.000011231
      18
-0.000001107 0.000001586 0.000017493
      19
 0.000000506 0.000008330 0.000028799
      20
 0.000002156 0.000013944 0.000027998
      21
 0.000003037 0.000019016 0.000017591
 Broadening   0.0150
       1
-0.000000000-0.000000000-0.000000000
       2
 0.000000133 0.000000133 0.000000553
       3
 0.000000494 0.000000494 0.000002105
       4
 0.000000985 0.000000985 0.000004362
       5
 0.000001491 0.000001491 0.000006923
       6
 0.000002213 0.000002213 0.000011371
       7
 0.000002432 0.000002432 0.000013105
       8
 0.000002454 0.000004397 0.000012978
       9
 0.000002448 0.000005855 0.000016843
      10
 0.000002110 0.000003187 0.000023536
      11
 0.000001886 0.000001886 0.000026253
      12
 0.000000484 0.000000484 0.000018123
      13
-0.000000174-0.000000174 0.000011915
      14
-0.000000283-0.000000283 0.000003239
      15
-0.000000000-0.000000000-0.000000000
      16
 0.000000312-0.000000473 0.000001875
      17
-0.000001269 0.000001612 0.000006801
      18
-0.000001405 0.000003094 0.000010396
      19
-0.000000046 0.000008106 0.000016449
      20
 0.000001522 0.000011386 0.000015767
      21
 0.000002439 0.000010864 0.000013046
 Broadening   0.0200
       1
 0.000000000 0.000000000 0.000000000
       2
 0.000000222 0.000000222 0.000000321
       3
 0.000000800 0.000000800 0.000001271
       4
 0.000001510 0.000001510 0.000002793
       5
 0.000002110 0.000002110 0.000004743
       6
 0.000002541 0.000002541 0.000008786
       7
 0.000002463 0.000002463 0.000010629
       8
 0.000002499 0.000003888 0.000010331
       9
 0.000002251 0.000004668 0.000013356
      10
 0.000001659 0.000002391 0.000018722
      11
 0.000001307 0.000001307 0.000020987
      12
 0.000000361 0.000000361 0.000014774
      13
-0.000000089-0.000000089 0.000009884
      14
-0.000000180-0.000000180 0.000002769
      15
 0.000000000 0.000000000 0.000000000
      16
 0.000000474-0.000000434 0.000001531
      17
-0.000001201 0.000001995 0.000005432
      18
-0.000001385 0.000003425 0.000008164
      19
-0.000000325 0.000007507 0.000012440
      20
 0.000001099 0.000009828 0.000011762
      21
 0.000002108 0.000008239 0.000010827
 Broadening   0.0250
       1
-0.000000000-0.000000000-0.000000000
       2
 0.000000219 0.000000219 0.000000283
       3
 0.000000791 0.000000791 0.000001128
       4
 0.000001506 0.000001506 0.000002507
       5
 0.000002134 0.000002134 0.000004307
       6
 0.000002677 0.000002677 0.000008128
       7
 0.000002667 0.000002667 0.000009899
       8
 0.000002561 0.000003795 0.000009474
       9
 0.000002091 0.000004247 0.000011882
      10
 0.000001370 0.000002027 0.000016339
      11
 0.000000995 0.000000995 0.000018230
      12
 0.000000306 0.000000306 0.000012912
      13
-0.000000028-0.000000028 0.000008685
      14
-0.000000117-0.000000117 0.000002455
      15
-0.000000000-0.000000000-0.000000000
      16
 0.000000459-0.000000355 0.000001359
      17
-0.000000999 0.000001872 0.000004798
      18
-0.000001173 0.000003154 0.000007188
      19
-0.000000336 0.000006725 0.000010899
      20
 0.000000932 0.000008789 0.000010355
      21
 0.000001997 0.000007434 0.000009802
 Broadening   0.0300
       1
-0.000000000-0.000000000-0.000000000
       2
 0.000000193 0.000000193 0.000000316
       3
 0.000000706 0.000000706 0.000001246
       4
 0.000001376 0.000001376 0.000002718
       5
 0.000002012 0.000002012 0.000004578
       6
 0.000002751 0.000002751 0.000008366
       7
 0.000002892 0.000002892 0.000010069
       8
 0.000002619 0.000003804 0.000009456
       9
 0.000001956 0.000004088 0.000011156
      10
 0.000001143 0.000001827 0.000014784
      11
 0.000000769 0.000000769 0.000016347
      12
 0.000000292 0.000000292 0.000011630
      13
 0.000000048 0.000000048 0.000007853
      14
-0.000000055-0.000000055 0.000002234
      15
-0.000000000-0.000000000-0.000000000
      16
 0.000000402-0.000000259 0.000001268
      17
-0.000000735 0.000001634 0.000004467
      18
-0.000000870 0.000002754 0.000006682
      19
-0.000000218 0.000005977 0.000010127
      20
 0.000000881 0.000008054 0.000009684
      21
 0.000001963 0.000007106 0.000009378
 Broadening   0.0350
       1
-0.000000000-0.000000000-0.000000000
       2
 0.000000169 0.000000169 0.000000367
       3
 0.000000627 0.000000627 0.000001428
       4
 0.000001251 0.000001251 0.000003062
       5
 0.000001892 0.000001892 0.000005060
       6
 0.000002805 0.000002805 0.000008953
       7
 0.000003081 0.000003081 0.000010642
       8
 0.000002665 0.000003825 0.000009798
       9
 0.000001839 0.000004021 0.000010756
      10
 0.000000948 0.000001691 0.000013628
      11
 0.000000576 0.000000576 0.000014919
      12
 0.000000290 0.000000290 0.000010678
      13
 0.000000126 0.000000126 0.000007248
      14
 0.000000003 0.000000003 0.000002079
      15
-0.000000000-0.000000000-0.000000000
      16
 0.000000349-0.000000167 0.000001218
      17
-0.000000481 0.000001419 0.000004274
      18
-0.000000573 0.000002402 0.000006375
      19
-0.000000079 0.000005379 0.000009614
      20
 0.000000861 0.000007562 0.000009219
      21
 0.000001943 0.000006881 0.000009281
 Broadening   0.0400
       1
 0.000000000-0.000000000-0.000000000
       2
 0.000000151 0.000000151 0.000000415
       3
 0.000000569 0.000000569 0.000001605
       4
 0.000001160 0.000001160 0.000003405
       5
 0.000001805 0.000001805 0.000005560
       6
 0.000002849 0.000002849 0.000009631
       7
 0.000003225 0.000003225 0.000011351
       8
 0.000002697 0.000003840 0.000010273
       9
 0.000001739 0.000003989 0.000010543
      10
 0.000000779 0.000001588 0.000012772
      11
 0.000000403 0.000000403 0.000013851
      12
 0.000000284 0.000000284 0.000009990
      13
 0.000000190 0.000000190 0.000006825
      14
 0.000000053 0.000000053 0.000001978
      15
 0.000000000-0.000000000-0.000000000
      16
 0.000000310-0.000000091 0.000001193
      17
-0.000000271 0.000001259 0.000004163
      18
-0.000000327 0.000002138 0.000006183
      19
 0.000000036 0.000004946 0.000009240
      20
 0.000000842 0.000007261 0.000008854
      21
 0.000001919 0.000006690 0.000009363
 Broadening   0.0450
       1
-0.000000000-0.000000000-0.000000000
       2
 0.000000139 0.000000139 0.000000457
       3
 0.000000531 0.000000531 0.000001758
       4
 0.000001102 0.000001102 0.000003708
       5
 0.000001751 0.000001751 0.000006012
       6
 0.000002884 0.000002884 0.000010280
       7
 0.000003327 0.000003327 0.000012053
       8
 0.000002716 0.000003846 0.000010764
       9
 0.000001654 0.000003974 0.000010449
      10
 0.000000633 0.000001503 0.000012172
      11
 0.000000250 0.000000250 0.000013098
      12
 0.000000271 0.000000271 0.000009525
      13
 0.000000238 0.000000238 0.000006552
      14
 0.000000093 0.000000093 0.000001920
      15
-0.000000000-0.000000000-0.000000000
      16
 0.000000284-0.000000033 0.000001185
      17
-0.000000110 0.000001148 0.000004112
      18
-0.000000141 0.000001953 0.000006076
      19
 0.000000118 0.000004649 0.000008976
      20
 0.000000819 0.000007090 0.000008570
      21
 0.000001892 0.000006527 0.000009527
 Broadening   0.0500
       1
-0.000000000 0.000000000 0.000000000
       2
 0.000000133 0.000000133 0.000000491
       3
 0.000000509 0.000000509 0.000001885
       4
 0.000001067 0.000001067 0.000003961
       5
 0.000001719 0.000001719 0.000006394
       6
 0.000002907 0.000002907 0.000010842
       7
 0.000003391 0.000003391 0.000012666
       8
 0.000002723 0.000003842 0.000011203
       9
 0.000001583 0.000003962 0.000010424
      10
 0.000000512 0.000001431 0.000011775
      11
 0.000000118 0.000000118 0.000012599
      12
 0.000000254 0.000000254 0.000009236
      13
 0.000000270 0.000000270 0.000006396
      14
 0.000000123 0.000000123 0.000001893
      15
-0.000000000 0.000000000 0.000000000
      16
 0.000000268 0.000000010 0.000001190
      17
 0.000000006 0.000001076 0.000004103
      18
-0.000000006 0.000001829 0.000006032
      19
 0.000000173 0.000004448 0.000008798
      20
 0.000000794 0.000006997 0.000008356
      21
 0.000001862 0.000006391 0.000009706

     MATDYN       :      0.03s CPU      0.02s WALL


   This run was terminated on:  20:14: 6  26Jun2021            

=------------------------------------------------------------------------------=
   JOB DONE.
=------------------------------------------------------------------------------=
