
     Program PHONON v.6.7MaX starts on 27Jun2021 at 14:47:19 

     This program is part of the open-source Quantum ESPRESSO suite
     for quantum simulation of materials; please cite
         "P. Giannozzi et al., J. Phys.:Condens. Matter 21 395502 (2009);
         "P. Giannozzi et al., J. Phys.:Condens. Matter 29 465901 (2017);
          URL http://www.quantum-espresso.org", 
     in publications or presentations arising from this work. More details at
     http://www.quantum-espresso.org/quote

     Serial version
     Reading input from al.ph.in

     Reading xml data from directory:

     /home/k-tsukamoto/win/Documents/QuantumEspresso/q-e-qe-6.7.0/tempdir/al.save/

     IMPORTANT: XC functional enforced from input :
     Exchange-correlation= PZ
                           (   1   1   0   0   0   0   0)
     Any further DFT definition will be discarded
     Please, verify this is what you really want


     G-vector sticks info
     --------------------
     sticks:   dense  smooth     PW     G-vecs:    dense   smooth      PW
     Sum         121     121     43                  869      869     181

     Reading collected, re-writing distributed wavefunctions


     Dynamical matrices for ( 4, 4, 4)  uniform grid of q-points
     (   8 q-points):
       N         xq(1)         xq(2)         xq(3) 
       1   0.000000000   0.000000000   0.000000000
       2  -0.250000000   0.250000000  -0.250000000
       3   0.500000000  -0.500000000   0.500000000
       4   0.000000000   0.500000000   0.000000000
       5   0.750000000  -0.250000000   0.750000000
       6   0.500000000   0.000000000   0.500000000
       7   0.000000000  -1.000000000   0.000000000
       8  -0.500000000  -1.000000000   0.000000000

     Calculation of q =    0.0000000   0.0000000   0.0000000

     Phonon dispersions for Al                                                  

     bravais-lattice index     =            2
     lattice parameter (alat)  =       7.5000  a.u.
     unit-cell volume          =     105.4688 (a.u.)^3
     number of atoms/cell      =            1
     number of atomic types    =            1
     kinetic-energy cut-off    =      15.0000  Ry
     charge density cut-off    =      60.0000  Ry
     convergence threshold     =      1.0E-10
     beta                      =       0.7000
     number of iterations used =            4
     Exchange-correlation= PZ
                           (   1   1   0   0   0   0   0)


     celldm(1)=    7.50000  celldm(2)=    0.00000  celldm(3)=    0.00000
     celldm(4)=    0.00000  celldm(5)=    0.00000  celldm(6)=    0.00000

     crystal axes: (cart. coord. in units of alat)
               a(1) = ( -0.5000  0.0000  0.5000 )  
               a(2) = (  0.0000  0.5000  0.5000 )  
               a(3) = ( -0.5000  0.5000  0.0000 )  

     reciprocal axes: (cart. coord. in units 2 pi/alat)
               b(1) = ( -1.0000 -1.0000  1.0000 )  
               b(2) = (  1.0000  1.0000  1.0000 )  
               b(3) = ( -1.0000  1.0000 -1.0000 )  


     Atoms inside the unit cell: 

     Cartesian axes

     site n.  atom      mass           positions (alat units)
        1     Al  26.9800   tau(    1) = (    0.00000    0.00000    0.00000  )

     Computing dynamical matrix for 
                    q = (   0.0000000   0.0000000   0.0000000 )

     49 Sym.Ops. (with q -> -q+G )


     G cutoff =   85.4897  (    869 G-vectors)     FFT grid: ( 15, 15, 15)

     number of k points=    29  Marzari-Vanderbilt smearing, width (Ry)=  0.0500

     PseudoPot. # 1 for Al read from file:
     /home/k-tsukamoto/win/Documents/QuantumEspresso/q-e-qe-6.7.0/pseudo/Al.pz-vbc.UPF
     MD5 check sum: f06ceae8da0fe5c02c98e3688433298c
     Pseudo is Norm-conserving, Zval =  3.0
     Generated by new atomic code, or converted to UPF format
     Using radial grid of  171 points,  2 beta functions with: 
                l(1) =   0
                l(2) =   1

     Mode symmetry, O_h (m-3m)  point group:


     Atomic displacements:
     There are    1 irreducible representations

     Representation     1      3 modes -  To be done



     Alpha used in Ewald sum =   0.7000
     PHONON       :      0.05s CPU      0.12s WALL



     Representation #   1 modes #   1   2   3

     Self-consistent Calculation

     Pert. #  1: Fermi energy shift (Ry) =    -2.3437E-24    -7.0530E-38
     Pert. #  2: Fermi energy shift (Ry) =    -2.8779E-24     1.5673E-38
     Pert. #  3: Fermi energy shift (Ry) =    -1.1718E-24    -8.6203E-38

      iter #   1 total cpu time :     0.2 secs   av.it.:   3.3
      thresh= 1.000E-02 alpha_mix =  0.700 |ddv_scf|^2 =  1.431E-08

     Pert. #  1: Fermi energy shift (Ry) =     6.8932E-25     1.5306E-40
     Pert. #  2: Fermi energy shift (Ry) =     6.7208E-25     1.8367E-40
     Pert. #  3: Fermi energy shift (Ry) =     2.2747E-24     6.1224E-41

      iter #   2 total cpu time :     0.3 secs   av.it.:   5.5
      thresh= 1.196E-05 alpha_mix =  0.700 |ddv_scf|^2 =  1.497E-09

     Pert. #  1: Fermi energy shift (Ry) =     2.0680E-24     1.5306E-40
     Pert. #  2: Fermi energy shift (Ry) =    -7.0655E-25     1.8367E-40
     Pert. #  3: Fermi energy shift (Ry) =    -2.7573E-25     6.1224E-41

      iter #   3 total cpu time :     0.3 secs   av.it.:   5.2
      thresh= 3.868E-06 alpha_mix =  0.700 |ddv_scf|^2 =  1.785E-13

     End of self-consistent calculation

     Convergence has been achieved 

     Number of q in the star =    1
     List of q in the star:
          1   0.000000000   0.000000000   0.000000000

     Diagonalizing the dynamical matrix

     q = (    0.000000000   0.000000000   0.000000000 ) 

 **************************************************************************
     freq (    1) =       0.172965 [THz] =       5.769507 [cm-1]
     freq (    2) =       0.172965 [THz] =       5.769507 [cm-1]
     freq (    3) =       0.172965 [THz] =       5.769507 [cm-1]
 **************************************************************************

     Mode symmetry, O_h (m-3m)  point group:

     freq (   1-   3) =          5.8  [cm-1]   --> T_1u G_15  G_4- I  

     Calculation of q =   -0.2500000   0.2500000  -0.2500000

     G-vector sticks info
     --------------------
     sticks:   dense  smooth     PW     G-vecs:    dense   smooth      PW
     Sum         121     121     55                  869      869     259


     Title: 
     Phonon dispersions for Al                                                  


     bravais-lattice index     =            2
     lattice parameter (alat)  =       7.5000  a.u.
     unit-cell volume          =     105.4688 (a.u.)^3
     number of atoms/cell      =            1
     number of atomic types    =            1
     number of electrons       =         3.00
     number of Kohn-Sham states=            6
     kinetic-energy cutoff     =      15.0000  Ry
     charge density cutoff     =      60.0000  Ry
     Exchange-correlation= PZ
                           (   1   1   0   0   0   0   0)

     celldm(1)=   7.500000  celldm(2)=   0.000000  celldm(3)=   0.000000
     celldm(4)=   0.000000  celldm(5)=   0.000000  celldm(6)=   0.000000

     crystal axes: (cart. coord. in units of alat)
               a(1) = (  -0.500000   0.000000   0.500000 )  
               a(2) = (   0.000000   0.500000   0.500000 )  
               a(3) = (  -0.500000   0.500000   0.000000 )  

     reciprocal axes: (cart. coord. in units 2 pi/alat)
               b(1) = ( -1.000000 -1.000000  1.000000 )  
               b(2) = (  1.000000  1.000000  1.000000 )  
               b(3) = ( -1.000000  1.000000 -1.000000 )  


     PseudoPot. # 1 for Al read from file:
     /home/k-tsukamoto/win/Documents/QuantumEspresso/q-e-qe-6.7.0/pseudo/Al.pz-vbc.UPF
     MD5 check sum: f06ceae8da0fe5c02c98e3688433298c
     Pseudo is Norm-conserving, Zval =  3.0
     Generated by new atomic code, or converted to UPF format
     Using radial grid of  171 points,  2 beta functions with: 
                l(1) =   0
                l(2) =   1

     atomic species   valence    mass     pseudopotential
        Al             3.00    26.98000     Al( 1.00)

     48 Sym. Ops., with inversion, found



   Cartesian axes

     site n.     atom                  positions (alat units)
         1           Al  tau(   1) = (   0.0000000   0.0000000   0.0000000  )

     number of k points=   240  Marzari-Vanderbilt smearing, width (Ry)=  0.0500

     Number of k-points >= 100: set verbosity='high' to print them.

     Dense  grid:      869 G-vectors     FFT dimensions: (  15,  15,  15)

     Estimated max dynamical RAM per process >       0.52 MB

     The potential is recalculated from file :
     /home/k-tsukamoto/win/Documents/QuantumEspresso/q-e-qe-6.7.0/tempdir/_ph0/al.save/charge-density

     Starting wfcs are    4 atomic +    2 random wfcs

     Band Structure Calculation
     Davidson diagonalization with overlap

     ethr =  3.33E-10,  avg # of iterations = 13.6

     total cpu time spent up to now is        1.0 secs

     End of band structure calculation

     Number of k-points >= 100: set verbosity='high' to print the bands.

     the Fermi energy is     8.1776 ev

     Writing output data file /home/k-tsukamoto/win/Documents/QuantumEspresso/q-e-qe-6.7.0/tempdir/_ph0/al.save/

     Phonon dispersions for Al                                                  

     bravais-lattice index     =            2
     lattice parameter (alat)  =       7.5000  a.u.
     unit-cell volume          =     105.4688 (a.u.)^3
     number of atoms/cell      =            1
     number of atomic types    =            1
     kinetic-energy cut-off    =      15.0000  Ry
     charge density cut-off    =      60.0000  Ry
     convergence threshold     =      1.0E-10
     beta                      =       0.7000
     number of iterations used =            4
     Exchange-correlation= PZ
                           (   1   1   0   0   0   0   0)


     celldm(1)=    7.50000  celldm(2)=    0.00000  celldm(3)=    0.00000
     celldm(4)=    0.00000  celldm(5)=    0.00000  celldm(6)=    0.00000

     crystal axes: (cart. coord. in units of alat)
               a(1) = ( -0.5000  0.0000  0.5000 )  
               a(2) = (  0.0000  0.5000  0.5000 )  
               a(3) = ( -0.5000  0.5000  0.0000 )  

     reciprocal axes: (cart. coord. in units 2 pi/alat)
               b(1) = ( -1.0000 -1.0000  1.0000 )  
               b(2) = (  1.0000  1.0000  1.0000 )  
               b(3) = ( -1.0000  1.0000 -1.0000 )  


     Atoms inside the unit cell: 

     Cartesian axes

     site n.  atom      mass           positions (alat units)
        1     Al  26.9800   tau(    1) = (    0.00000    0.00000    0.00000  )

     Computing dynamical matrix for 
                    q = (  -0.2500000   0.2500000  -0.2500000 )

      6 Sym.Ops. (no q -> -q+G )


     G cutoff =   85.4897  (    869 G-vectors)     FFT grid: ( 15, 15, 15)

     number of k points=   240  Marzari-Vanderbilt smearing, width (Ry)=  0.0500

     PseudoPot. # 1 for Al read from file:
     /home/k-tsukamoto/win/Documents/QuantumEspresso/q-e-qe-6.7.0/pseudo/Al.pz-vbc.UPF
     MD5 check sum: f06ceae8da0fe5c02c98e3688433298c
     Pseudo is Norm-conserving, Zval =  3.0
     Generated by new atomic code, or converted to UPF format
     Using radial grid of  171 points,  2 beta functions with: 
                l(1) =   0
                l(2) =   1

     Mode symmetry, C_3v (3m)   point group:


     Atomic displacements:
     There are    2 irreducible representations

     Representation     1      1 modes -  To be done

     Representation     2      2 modes -  To be done



     Alpha used in Ewald sum =   0.7000
     PHONON       :      1.11s CPU      1.41s WALL



     Representation #   1 mode #   1

     Self-consistent Calculation

      iter #   1 total cpu time :     1.5 secs   av.it.:   4.2
      thresh= 1.000E-02 alpha_mix =  0.700 |ddv_scf|^2 =  2.383E-02

      iter #   2 total cpu time :     1.6 secs   av.it.:   4.9
      thresh= 1.000E-02 alpha_mix =  0.700 |ddv_scf|^2 =  1.036E+00

      iter #   3 total cpu time :     1.7 secs   av.it.:   4.8
      thresh= 1.000E-02 alpha_mix =  0.700 |ddv_scf|^2 =  5.887E-07

      iter #   4 total cpu time :     1.8 secs   av.it.:   5.2
      thresh= 7.673E-05 alpha_mix =  0.700 |ddv_scf|^2 =  2.681E-09

      iter #   5 total cpu time :     1.9 secs   av.it.:   5.5
      thresh= 5.178E-06 alpha_mix =  0.700 |ddv_scf|^2 =  3.269E-09

      iter #   6 total cpu time :     2.0 secs   av.it.:   4.2
      thresh= 5.718E-06 alpha_mix =  0.700 |ddv_scf|^2 =  9.371E-09

      iter #   7 total cpu time :     2.0 secs   av.it.:   4.1
      thresh= 9.681E-06 alpha_mix =  0.700 |ddv_scf|^2 =  7.738E-13

     End of self-consistent calculation

     Convergence has been achieved 


     Representation #   2 modes #   2   3

     Self-consistent Calculation

      iter #   1 total cpu time :     2.2 secs   av.it.:   3.4
      thresh= 1.000E-02 alpha_mix =  0.700 |ddv_scf|^2 =  3.732E-08

      iter #   2 total cpu time :     2.4 secs   av.it.:   5.9
      thresh= 1.932E-05 alpha_mix =  0.700 |ddv_scf|^2 =  3.496E-09

      iter #   3 total cpu time :     2.6 secs   av.it.:   5.6
      thresh= 5.913E-06 alpha_mix =  0.700 |ddv_scf|^2 =  1.152E-11

     End of self-consistent calculation

     Convergence has been achieved 

     Number of q in the star =    8
     List of q in the star:
          1  -0.250000000   0.250000000  -0.250000000
          2   0.250000000  -0.250000000  -0.250000000
          3   0.250000000  -0.250000000   0.250000000
          4   0.250000000   0.250000000   0.250000000
          5  -0.250000000  -0.250000000  -0.250000000
          6  -0.250000000  -0.250000000   0.250000000
          7  -0.250000000   0.250000000   0.250000000
          8   0.250000000   0.250000000  -0.250000000

     Diagonalizing the dynamical matrix

     q = (   -0.250000000   0.250000000  -0.250000000 ) 

 **************************************************************************
     freq (    1) =       3.512911 [THz] =     117.178103 [cm-1]
     freq (    2) =       3.512911 [THz] =     117.178103 [cm-1]
     freq (    3) =       6.337221 [THz] =     211.386932 [cm-1]
 **************************************************************************

     Mode symmetry, C_3v (3m)   point group:

     freq (   1-   2) =        117.2  [cm-1]   --> E    L_3           
     freq (   3-   3) =        211.4  [cm-1]   --> A_1  L_1           

     Calculation of q =    0.5000000  -0.5000000   0.5000000

     G-vector sticks info
     --------------------
     sticks:   dense  smooth     PW     G-vecs:    dense   smooth      PW
     Sum         121     121     61                  869      869     331


     Title: 
     Phonon dispersions for Al                                                  


     bravais-lattice index     =            2
     lattice parameter (alat)  =       7.5000  a.u.
     unit-cell volume          =     105.4688 (a.u.)^3
     number of atoms/cell      =            1
     number of atomic types    =            1
     number of electrons       =         3.00
     number of Kohn-Sham states=            6
     kinetic-energy cutoff     =      15.0000  Ry
     charge density cutoff     =      60.0000  Ry
     Exchange-correlation= PZ
                           (   1   1   0   0   0   0   0)

     celldm(1)=   7.500000  celldm(2)=   0.000000  celldm(3)=   0.000000
     celldm(4)=   0.000000  celldm(5)=   0.000000  celldm(6)=   0.000000

     crystal axes: (cart. coord. in units of alat)
               a(1) = (  -0.500000   0.000000   0.500000 )  
               a(2) = (   0.000000   0.500000   0.500000 )  
               a(3) = (  -0.500000   0.500000   0.000000 )  

     reciprocal axes: (cart. coord. in units 2 pi/alat)
               b(1) = ( -1.000000 -1.000000  1.000000 )  
               b(2) = (  1.000000  1.000000  1.000000 )  
               b(3) = ( -1.000000  1.000000 -1.000000 )  


     PseudoPot. # 1 for Al read from file:
     /home/k-tsukamoto/win/Documents/QuantumEspresso/q-e-qe-6.7.0/pseudo/Al.pz-vbc.UPF
     MD5 check sum: f06ceae8da0fe5c02c98e3688433298c
     Pseudo is Norm-conserving, Zval =  3.0
     Generated by new atomic code, or converted to UPF format
     Using radial grid of  171 points,  2 beta functions with: 
                l(1) =   0
                l(2) =   1

     atomic species   valence    mass     pseudopotential
        Al             3.00    26.98000     Al( 1.00)

     48 Sym. Ops., with inversion, found



   Cartesian axes

     site n.     atom                  positions (alat units)
         1           Al  tau(   1) = (   0.0000000   0.0000000   0.0000000  )

     number of k points=   130  Marzari-Vanderbilt smearing, width (Ry)=  0.0500

     Number of k-points >= 100: set verbosity='high' to print them.

     Dense  grid:      869 G-vectors     FFT dimensions: (  15,  15,  15)

     Estimated max dynamical RAM per process >       0.52 MB

     The potential is recalculated from file :
     /home/k-tsukamoto/win/Documents/QuantumEspresso/q-e-qe-6.7.0/tempdir/_ph0/al.save/charge-density

     Starting wfcs are    4 atomic +    2 random wfcs

     Band Structure Calculation
     Davidson diagonalization with overlap

     ethr =  3.33E-10,  avg # of iterations = 13.8

     total cpu time spent up to now is        1.6 secs

     End of band structure calculation

     Number of k-points >= 100: set verbosity='high' to print the bands.

     the Fermi energy is     8.1776 ev

     Writing output data file /home/k-tsukamoto/win/Documents/QuantumEspresso/q-e-qe-6.7.0/tempdir/_ph0/al.save/

     Phonon dispersions for Al                                                  

     bravais-lattice index     =            2
     lattice parameter (alat)  =       7.5000  a.u.
     unit-cell volume          =     105.4688 (a.u.)^3
     number of atoms/cell      =            1
     number of atomic types    =            1
     kinetic-energy cut-off    =      15.0000  Ry
     charge density cut-off    =      60.0000  Ry
     convergence threshold     =      1.0E-10
     beta                      =       0.7000
     number of iterations used =            4
     Exchange-correlation= PZ
                           (   1   1   0   0   0   0   0)


     celldm(1)=    7.50000  celldm(2)=    0.00000  celldm(3)=    0.00000
     celldm(4)=    0.00000  celldm(5)=    0.00000  celldm(6)=    0.00000

     crystal axes: (cart. coord. in units of alat)
               a(1) = ( -0.5000  0.0000  0.5000 )  
               a(2) = (  0.0000  0.5000  0.5000 )  
               a(3) = ( -0.5000  0.5000  0.0000 )  

     reciprocal axes: (cart. coord. in units 2 pi/alat)
               b(1) = ( -1.0000 -1.0000  1.0000 )  
               b(2) = (  1.0000  1.0000  1.0000 )  
               b(3) = ( -1.0000  1.0000 -1.0000 )  


     Atoms inside the unit cell: 

     Cartesian axes

     site n.  atom      mass           positions (alat units)
        1     Al  26.9800   tau(    1) = (    0.00000    0.00000    0.00000  )

     Computing dynamical matrix for 
                    q = (   0.5000000  -0.5000000   0.5000000 )

     13 Sym.Ops. (with q -> -q+G )


     G cutoff =   85.4897  (    869 G-vectors)     FFT grid: ( 15, 15, 15)

     number of k points=   130  Marzari-Vanderbilt smearing, width (Ry)=  0.0500

     PseudoPot. # 1 for Al read from file:
     /home/k-tsukamoto/win/Documents/QuantumEspresso/q-e-qe-6.7.0/pseudo/Al.pz-vbc.UPF
     MD5 check sum: f06ceae8da0fe5c02c98e3688433298c
     Pseudo is Norm-conserving, Zval =  3.0
     Generated by new atomic code, or converted to UPF format
     Using radial grid of  171 points,  2 beta functions with: 
                l(1) =   0
                l(2) =   1

     Mode symmetry, D_3d (-3m)  point group:


     Atomic displacements:
     There are    2 irreducible representations

     Representation     1      1 modes -  To be done

     Representation     2      2 modes -  To be done



     Alpha used in Ewald sum =   0.7000
     PHONON       :      2.72s CPU      3.24s WALL



     Representation #   1 mode #   1

     Self-consistent Calculation

      iter #   1 total cpu time :     3.3 secs   av.it.:   4.4
      thresh= 1.000E-02 alpha_mix =  0.700 |ddv_scf|^2 =  2.724E-04

      iter #   2 total cpu time :     3.3 secs   av.it.:   5.5
      thresh= 1.650E-03 alpha_mix =  0.700 |ddv_scf|^2 =  3.200E-04

      iter #   3 total cpu time :     3.4 secs   av.it.:   4.9
      thresh= 1.789E-03 alpha_mix =  0.700 |ddv_scf|^2 =  7.200E-09

      iter #   4 total cpu time :     3.5 secs   av.it.:   5.5
      thresh= 8.485E-06 alpha_mix =  0.700 |ddv_scf|^2 =  3.353E-10

      iter #   5 total cpu time :     3.5 secs   av.it.:   5.1
      thresh= 1.831E-06 alpha_mix =  0.700 |ddv_scf|^2 =  7.723E-14

     End of self-consistent calculation

     Convergence has been achieved 


     Representation #   2 modes #   2   3

     Self-consistent Calculation

      iter #   1 total cpu time :     3.6 secs   av.it.:   3.4
      thresh= 1.000E-02 alpha_mix =  0.700 |ddv_scf|^2 =  4.101E-08

      iter #   2 total cpu time :     3.7 secs   av.it.:   5.9
      thresh= 2.025E-05 alpha_mix =  0.700 |ddv_scf|^2 =  3.605E-09

      iter #   3 total cpu time :     3.8 secs   av.it.:   5.6
      thresh= 6.004E-06 alpha_mix =  0.700 |ddv_scf|^2 =  2.025E-11

     End of self-consistent calculation

     Convergence has been achieved 

     Number of q in the star =    4
     List of q in the star:
          1   0.500000000  -0.500000000   0.500000000
          2   0.500000000   0.500000000   0.500000000
          3  -0.500000000   0.500000000   0.500000000
          4   0.500000000   0.500000000  -0.500000000

     Diagonalizing the dynamical matrix

     q = (    0.500000000  -0.500000000   0.500000000 ) 

 **************************************************************************
     freq (    1) =       4.438857 [THz] =     148.064337 [cm-1]
     freq (    2) =       4.438857 [THz] =     148.064337 [cm-1]
     freq (    3) =       9.422651 [THz] =     314.305807 [cm-1]
 **************************************************************************

     Mode symmetry, D_3d (-3m)  point group:

     freq (   1-   2) =        148.1  [cm-1]   --> E_u  L_3'          
     freq (   3-   3) =        314.3  [cm-1]   --> A_2u L_2'          

     Calculation of q =    0.0000000   0.5000000   0.0000000

     G-vector sticks info
     --------------------
     sticks:   dense  smooth     PW     G-vecs:    dense   smooth      PW
     Sum         121     121     55                  869      869     259


     Title: 
     Phonon dispersions for Al                                                  


     bravais-lattice index     =            2
     lattice parameter (alat)  =       7.5000  a.u.
     unit-cell volume          =     105.4688 (a.u.)^3
     number of atoms/cell      =            1
     number of atomic types    =            1
     number of electrons       =         3.00
     number of Kohn-Sham states=            6
     kinetic-energy cutoff     =      15.0000  Ry
     charge density cutoff     =      60.0000  Ry
     Exchange-correlation= PZ
                           (   1   1   0   0   0   0   0)

     celldm(1)=   7.500000  celldm(2)=   0.000000  celldm(3)=   0.000000
     celldm(4)=   0.000000  celldm(5)=   0.000000  celldm(6)=   0.000000

     crystal axes: (cart. coord. in units of alat)
               a(1) = (  -0.500000   0.000000   0.500000 )  
               a(2) = (   0.000000   0.500000   0.500000 )  
               a(3) = (  -0.500000   0.500000   0.000000 )  

     reciprocal axes: (cart. coord. in units 2 pi/alat)
               b(1) = ( -1.000000 -1.000000  1.000000 )  
               b(2) = (  1.000000  1.000000  1.000000 )  
               b(3) = ( -1.000000  1.000000 -1.000000 )  


     PseudoPot. # 1 for Al read from file:
     /home/k-tsukamoto/win/Documents/QuantumEspresso/q-e-qe-6.7.0/pseudo/Al.pz-vbc.UPF
     MD5 check sum: f06ceae8da0fe5c02c98e3688433298c
     Pseudo is Norm-conserving, Zval =  3.0
     Generated by new atomic code, or converted to UPF format
     Using radial grid of  171 points,  2 beta functions with: 
                l(1) =   0
                l(2) =   1

     atomic species   valence    mass     pseudopotential
        Al             3.00    26.98000     Al( 1.00)

     48 Sym. Ops., with inversion, found



   Cartesian axes

     site n.     atom                  positions (alat units)
         1           Al  tau(   1) = (   0.0000000   0.0000000   0.0000000  )

     number of k points=   200  Marzari-Vanderbilt smearing, width (Ry)=  0.0500

     Number of k-points >= 100: set verbosity='high' to print them.

     Dense  grid:      869 G-vectors     FFT dimensions: (  15,  15,  15)

     Estimated max dynamical RAM per process >       0.52 MB

     The potential is recalculated from file :
     /home/k-tsukamoto/win/Documents/QuantumEspresso/q-e-qe-6.7.0/tempdir/_ph0/al.save/charge-density

     Starting wfcs are    4 atomic +    2 random wfcs

     Band Structure Calculation
     Davidson diagonalization with overlap

     ethr =  3.33E-10,  avg # of iterations = 13.3

     total cpu time spent up to now is        2.5 secs

     End of band structure calculation

     Number of k-points >= 100: set verbosity='high' to print the bands.

     the Fermi energy is     8.1776 ev

     Writing output data file /home/k-tsukamoto/win/Documents/QuantumEspresso/q-e-qe-6.7.0/tempdir/_ph0/al.save/

     Phonon dispersions for Al                                                  

     bravais-lattice index     =            2
     lattice parameter (alat)  =       7.5000  a.u.
     unit-cell volume          =     105.4688 (a.u.)^3
     number of atoms/cell      =            1
     number of atomic types    =            1
     kinetic-energy cut-off    =      15.0000  Ry
     charge density cut-off    =      60.0000  Ry
     convergence threshold     =      1.0E-10
     beta                      =       0.7000
     number of iterations used =            4
     Exchange-correlation= PZ
                           (   1   1   0   0   0   0   0)


     celldm(1)=    7.50000  celldm(2)=    0.00000  celldm(3)=    0.00000
     celldm(4)=    0.00000  celldm(5)=    0.00000  celldm(6)=    0.00000

     crystal axes: (cart. coord. in units of alat)
               a(1) = ( -0.5000  0.0000  0.5000 )  
               a(2) = (  0.0000  0.5000  0.5000 )  
               a(3) = ( -0.5000  0.5000  0.0000 )  

     reciprocal axes: (cart. coord. in units 2 pi/alat)
               b(1) = ( -1.0000 -1.0000  1.0000 )  
               b(2) = (  1.0000  1.0000  1.0000 )  
               b(3) = ( -1.0000  1.0000 -1.0000 )  


     Atoms inside the unit cell: 

     Cartesian axes

     site n.  atom      mass           positions (alat units)
        1     Al  26.9800   tau(    1) = (    0.00000    0.00000    0.00000  )

     Computing dynamical matrix for 
                    q = (   0.0000000   0.5000000   0.0000000 )

      8 Sym.Ops. (no q -> -q+G )


     G cutoff =   85.4897  (    869 G-vectors)     FFT grid: ( 15, 15, 15)

     number of k points=   200  Marzari-Vanderbilt smearing, width (Ry)=  0.0500

     PseudoPot. # 1 for Al read from file:
     /home/k-tsukamoto/win/Documents/QuantumEspresso/q-e-qe-6.7.0/pseudo/Al.pz-vbc.UPF
     MD5 check sum: f06ceae8da0fe5c02c98e3688433298c
     Pseudo is Norm-conserving, Zval =  3.0
     Generated by new atomic code, or converted to UPF format
     Using radial grid of  171 points,  2 beta functions with: 
                l(1) =   0
                l(2) =   1

     Mode symmetry, C_4v (4mm)  point group:


     Atomic displacements:
     There are    2 irreducible representations

     Representation     1      1 modes -  To be done

     Representation     2      2 modes -  To be done



     Alpha used in Ewald sum =   0.7000
     PHONON       :      3.92s CPU      4.72s WALL



     Representation #   1 mode #   1

     Self-consistent Calculation

      iter #   1 total cpu time :     4.8 secs   av.it.:   3.9
      thresh= 1.000E-02 alpha_mix =  0.700 |ddv_scf|^2 =  9.527E-03

      iter #   2 total cpu time :     4.9 secs   av.it.:   4.5
      thresh= 9.761E-03 alpha_mix =  0.700 |ddv_scf|^2 =  2.274E-01

      iter #   3 total cpu time :     4.9 secs   av.it.:   4.4
      thresh= 1.000E-02 alpha_mix =  0.700 |ddv_scf|^2 =  6.417E-08

      iter #   4 total cpu time :     5.0 secs   av.it.:   5.5
      thresh= 2.533E-05 alpha_mix =  0.700 |ddv_scf|^2 =  3.201E-09

      iter #   5 total cpu time :     5.1 secs   av.it.:   4.8
      thresh= 5.658E-06 alpha_mix =  0.700 |ddv_scf|^2 =  3.224E-10

      iter #   6 total cpu time :     5.2 secs   av.it.:   4.2
      thresh= 1.796E-06 alpha_mix =  0.700 |ddv_scf|^2 =  1.212E-11

     End of self-consistent calculation

     Convergence has been achieved 


     Representation #   2 modes #   2   3

     Self-consistent Calculation

      iter #   1 total cpu time :     5.3 secs   av.it.:   3.4
      thresh= 1.000E-02 alpha_mix =  0.700 |ddv_scf|^2 =  1.016E-07

      iter #   2 total cpu time :     5.5 secs   av.it.:   6.0
      thresh= 3.188E-05 alpha_mix =  0.700 |ddv_scf|^2 =  3.562E-09

      iter #   3 total cpu time :     5.6 secs   av.it.:   5.5
      thresh= 5.968E-06 alpha_mix =  0.700 |ddv_scf|^2 =  1.995E-10

      iter #   4 total cpu time :     5.8 secs   av.it.:   5.3
      thresh= 1.412E-06 alpha_mix =  0.700 |ddv_scf|^2 =  2.007E-14

     End of self-consistent calculation

     Convergence has been achieved 

     Number of q in the star =    6
     List of q in the star:
          1   0.000000000   0.500000000   0.000000000
          2   0.000000000  -0.500000000   0.000000000
          3   0.500000000   0.000000000   0.000000000
          4   0.000000000   0.000000000   0.500000000
          5   0.000000000   0.000000000  -0.500000000
          6  -0.500000000   0.000000000   0.000000000

     Diagonalizing the dynamical matrix

     q = (    0.000000000   0.500000000   0.000000000 ) 

 **************************************************************************
     freq (    1) =       4.200455 [THz] =     140.112095 [cm-1]
     freq (    2) =       4.200455 [THz] =     140.112095 [cm-1]
     freq (    3) =       6.475062 [THz] =     215.984811 [cm-1]
 **************************************************************************

     Mode symmetry, C_4v (4mm)  point group:

     freq (   1-   2) =        140.1  [cm-1]   --> E    G_5 D_5       
     freq (   3-   3) =        216.0  [cm-1]   --> A_1  G_1 D_1       

     Calculation of q =    0.7500000  -0.2500000   0.7500000

     G-vector sticks info
     --------------------
     sticks:   dense  smooth     PW     G-vecs:    dense   smooth      PW
     Sum         121     121     61                  869      869     339


     Title: 
     Phonon dispersions for Al                                                  


     bravais-lattice index     =            2
     lattice parameter (alat)  =       7.5000  a.u.
     unit-cell volume          =     105.4688 (a.u.)^3
     number of atoms/cell      =            1
     number of atomic types    =            1
     number of electrons       =         3.00
     number of Kohn-Sham states=            6
     kinetic-energy cutoff     =      15.0000  Ry
     charge density cutoff     =      60.0000  Ry
     Exchange-correlation= PZ
                           (   1   1   0   0   0   0   0)

     celldm(1)=   7.500000  celldm(2)=   0.000000  celldm(3)=   0.000000
     celldm(4)=   0.000000  celldm(5)=   0.000000  celldm(6)=   0.000000

     crystal axes: (cart. coord. in units of alat)
               a(1) = (  -0.500000   0.000000   0.500000 )  
               a(2) = (   0.000000   0.500000   0.500000 )  
               a(3) = (  -0.500000   0.500000   0.000000 )  

     reciprocal axes: (cart. coord. in units 2 pi/alat)
               b(1) = ( -1.000000 -1.000000  1.000000 )  
               b(2) = (  1.000000  1.000000  1.000000 )  
               b(3) = ( -1.000000  1.000000 -1.000000 )  


     PseudoPot. # 1 for Al read from file:
     /home/k-tsukamoto/win/Documents/QuantumEspresso/q-e-qe-6.7.0/pseudo/Al.pz-vbc.UPF
     MD5 check sum: f06ceae8da0fe5c02c98e3688433298c
     Pseudo is Norm-conserving, Zval =  3.0
     Generated by new atomic code, or converted to UPF format
     Using radial grid of  171 points,  2 beta functions with: 
                l(1) =   0
                l(2) =   1

     atomic species   valence    mass     pseudopotential
        Al             3.00    26.98000     Al( 1.00)

     48 Sym. Ops., with inversion, found



   Cartesian axes

     site n.     atom                  positions (alat units)
         1           Al  tau(   1) = (   0.0000000   0.0000000   0.0000000  )

     number of k points=   576  Marzari-Vanderbilt smearing, width (Ry)=  0.0500

     Number of k-points >= 100: set verbosity='high' to print them.

     Dense  grid:      869 G-vectors     FFT dimensions: (  15,  15,  15)

     Estimated max dynamical RAM per process >       0.52 MB

     The potential is recalculated from file :
     /home/k-tsukamoto/win/Documents/QuantumEspresso/q-e-qe-6.7.0/tempdir/_ph0/al.save/charge-density

     Starting wfcs are    4 atomic +    2 random wfcs

     Band Structure Calculation
     Davidson diagonalization with overlap

     ethr =  3.33E-10,  avg # of iterations = 13.4

     total cpu time spent up to now is        4.9 secs

     End of band structure calculation

     Number of k-points >= 100: set verbosity='high' to print the bands.

     the Fermi energy is     8.1776 ev

     Writing output data file /home/k-tsukamoto/win/Documents/QuantumEspresso/q-e-qe-6.7.0/tempdir/_ph0/al.save/

     Phonon dispersions for Al                                                  

     bravais-lattice index     =            2
     lattice parameter (alat)  =       7.5000  a.u.
     unit-cell volume          =     105.4688 (a.u.)^3
     number of atoms/cell      =            1
     number of atomic types    =            1
     kinetic-energy cut-off    =      15.0000  Ry
     charge density cut-off    =      60.0000  Ry
     convergence threshold     =      1.0E-10
     beta                      =       0.7000
     number of iterations used =            4
     Exchange-correlation= PZ
                           (   1   1   0   0   0   0   0)


     celldm(1)=    7.50000  celldm(2)=    0.00000  celldm(3)=    0.00000
     celldm(4)=    0.00000  celldm(5)=    0.00000  celldm(6)=    0.00000

     crystal axes: (cart. coord. in units of alat)
               a(1) = ( -0.5000  0.0000  0.5000 )  
               a(2) = (  0.0000  0.5000  0.5000 )  
               a(3) = ( -0.5000  0.5000  0.0000 )  

     reciprocal axes: (cart. coord. in units 2 pi/alat)
               b(1) = ( -1.0000 -1.0000  1.0000 )  
               b(2) = (  1.0000  1.0000  1.0000 )  
               b(3) = ( -1.0000  1.0000 -1.0000 )  


     Atoms inside the unit cell: 

     Cartesian axes

     site n.  atom      mass           positions (alat units)
        1     Al  26.9800   tau(    1) = (    0.00000    0.00000    0.00000  )

     Computing dynamical matrix for 
                    q = (   0.7500000  -0.2500000   0.7500000 )

      2 Sym.Ops. (no q -> -q+G )


     G cutoff =   85.4897  (    869 G-vectors)     FFT grid: ( 15, 15, 15)

     number of k points=   576  Marzari-Vanderbilt smearing, width (Ry)=  0.0500

     PseudoPot. # 1 for Al read from file:
     /home/k-tsukamoto/win/Documents/QuantumEspresso/q-e-qe-6.7.0/pseudo/Al.pz-vbc.UPF
     MD5 check sum: f06ceae8da0fe5c02c98e3688433298c
     Pseudo is Norm-conserving, Zval =  3.0
     Generated by new atomic code, or converted to UPF format
     Using radial grid of  171 points,  2 beta functions with: 
                l(1) =   0
                l(2) =   1

     Mode symmetry, C_s (m)     point group:


     Atomic displacements:
     There are    3 irreducible representations

     Representation     1      1 modes -  To be done

     Representation     2      1 modes -  To be done

     Representation     3      1 modes -  To be done



     Alpha used in Ewald sum =   0.7000
     PHONON       :      7.12s CPU      8.36s WALL



     Representation #   1 mode #   1

     Self-consistent Calculation

      iter #   1 total cpu time :     8.6 secs   av.it.:   4.1
      thresh= 1.000E-02 alpha_mix =  0.700 |ddv_scf|^2 =  1.844E-04

      iter #   2 total cpu time :     8.8 secs   av.it.:   5.4
      thresh= 1.358E-03 alpha_mix =  0.700 |ddv_scf|^2 =  2.653E-04

      iter #   3 total cpu time :     9.0 secs   av.it.:   4.7
      thresh= 1.629E-03 alpha_mix =  0.700 |ddv_scf|^2 =  3.325E-07

      iter #   4 total cpu time :     9.3 secs   av.it.:   5.4
      thresh= 5.766E-05 alpha_mix =  0.700 |ddv_scf|^2 =  2.356E-09

      iter #   5 total cpu time :     9.5 secs   av.it.:   5.5
      thresh= 4.853E-06 alpha_mix =  0.700 |ddv_scf|^2 =  8.970E-11

     End of self-consistent calculation

     Convergence has been achieved 


     Representation #   2 mode #   2

     Self-consistent Calculation

      iter #   1 total cpu time :     9.7 secs   av.it.:   3.9
      thresh= 1.000E-02 alpha_mix =  0.700 |ddv_scf|^2 =  3.044E-05

      iter #   2 total cpu time :    10.0 secs   av.it.:   5.6
      thresh= 5.517E-04 alpha_mix =  0.700 |ddv_scf|^2 =  3.895E-05

      iter #   3 total cpu time :    10.2 secs   av.it.:   4.9
      thresh= 6.241E-04 alpha_mix =  0.700 |ddv_scf|^2 =  1.836E-07

      iter #   4 total cpu time :    10.4 secs   av.it.:   5.5
      thresh= 4.285E-05 alpha_mix =  0.700 |ddv_scf|^2 =  2.889E-09

      iter #   5 total cpu time :    10.6 secs   av.it.:   5.5
      thresh= 5.375E-06 alpha_mix =  0.700 |ddv_scf|^2 =  1.730E-10

      iter #   6 total cpu time :    10.9 secs   av.it.:   5.5
      thresh= 1.315E-06 alpha_mix =  0.700 |ddv_scf|^2 =  8.090E-14

     End of self-consistent calculation

     Convergence has been achieved 


     Representation #   3 mode #   3

     Self-consistent Calculation

      iter #   1 total cpu time :    11.1 secs   av.it.:   3.3
      thresh= 1.000E-02 alpha_mix =  0.700 |ddv_scf|^2 =  5.548E-07

      iter #   2 total cpu time :    11.3 secs   av.it.:   5.4
      thresh= 7.448E-05 alpha_mix =  0.700 |ddv_scf|^2 =  1.396E-08

      iter #   3 total cpu time :    11.5 secs   av.it.:   4.8
      thresh= 1.181E-05 alpha_mix =  0.700 |ddv_scf|^2 =  1.063E-09

      iter #   4 total cpu time :    11.7 secs   av.it.:   4.9
      thresh= 3.260E-06 alpha_mix =  0.700 |ddv_scf|^2 =  9.427E-14

     End of self-consistent calculation

     Convergence has been achieved 

     Number of q in the star =   24
     List of q in the star:
          1   0.750000000  -0.250000000   0.750000000
          2   0.750000000  -0.250000000  -0.750000000
          3  -0.750000000  -0.250000000  -0.750000000
          4  -0.750000000  -0.250000000   0.750000000
          5  -0.750000000   0.250000000  -0.750000000
          6  -0.250000000   0.750000000  -0.750000000
          7  -0.750000000   0.750000000  -0.250000000
          8   0.750000000   0.250000000   0.750000000
          9  -0.750000000   0.250000000   0.750000000
         10   0.750000000   0.250000000  -0.750000000
         11  -0.750000000   0.750000000   0.250000000
         12  -0.250000000   0.750000000   0.750000000
         13   0.250000000   0.750000000  -0.750000000
         14  -0.250000000  -0.750000000  -0.750000000
         15   0.750000000   0.750000000  -0.250000000
         16   0.750000000  -0.750000000   0.250000000
         17  -0.750000000  -0.750000000  -0.250000000
         18   0.250000000  -0.750000000   0.750000000
         19  -0.750000000  -0.750000000   0.250000000
         20   0.250000000   0.750000000   0.750000000
         21  -0.250000000  -0.750000000   0.750000000
         22   0.750000000   0.750000000   0.250000000
         23   0.250000000  -0.750000000  -0.750000000
         24   0.750000000  -0.750000000  -0.250000000

     Diagonalizing the dynamical matrix

     q = (    0.750000000  -0.250000000   0.750000000 ) 

 **************************************************************************
     freq (    1) =       5.392352 [THz] =     179.869503 [cm-1]
     freq (    2) =       6.718286 [THz] =     224.097912 [cm-1]
     freq (    3) =       8.795511 [THz] =     293.386661 [cm-1]
 **************************************************************************

     Mode symmetry, C_s (m)     point group:

     freq (   1-   1) =        179.9  [cm-1]   --> A''                
     freq (   2-   2) =        224.1  [cm-1]   --> A'                 
     freq (   3-   3) =        293.4  [cm-1]   --> A'                 

     Calculation of q =    0.5000000   0.0000000   0.5000000

     G-vector sticks info
     --------------------
     sticks:   dense  smooth     PW     G-vecs:    dense   smooth      PW
     Sum         121     121     61                  869      869     307


     Title: 
     Phonon dispersions for Al                                                  


     bravais-lattice index     =            2
     lattice parameter (alat)  =       7.5000  a.u.
     unit-cell volume          =     105.4688 (a.u.)^3
     number of atoms/cell      =            1
     number of atomic types    =            1
     number of electrons       =         3.00
     number of Kohn-Sham states=            6
     kinetic-energy cutoff     =      15.0000  Ry
     charge density cutoff     =      60.0000  Ry
     Exchange-correlation= PZ
                           (   1   1   0   0   0   0   0)

     celldm(1)=   7.500000  celldm(2)=   0.000000  celldm(3)=   0.000000
     celldm(4)=   0.000000  celldm(5)=   0.000000  celldm(6)=   0.000000

     crystal axes: (cart. coord. in units of alat)
               a(1) = (  -0.500000   0.000000   0.500000 )  
               a(2) = (   0.000000   0.500000   0.500000 )  
               a(3) = (  -0.500000   0.500000   0.000000 )  

     reciprocal axes: (cart. coord. in units 2 pi/alat)
               b(1) = ( -1.000000 -1.000000  1.000000 )  
               b(2) = (  1.000000  1.000000  1.000000 )  
               b(3) = ( -1.000000  1.000000 -1.000000 )  


     PseudoPot. # 1 for Al read from file:
     /home/k-tsukamoto/win/Documents/QuantumEspresso/q-e-qe-6.7.0/pseudo/Al.pz-vbc.UPF
     MD5 check sum: f06ceae8da0fe5c02c98e3688433298c
     Pseudo is Norm-conserving, Zval =  3.0
     Generated by new atomic code, or converted to UPF format
     Using radial grid of  171 points,  2 beta functions with: 
                l(1) =   0
                l(2) =   1

     atomic species   valence    mass     pseudopotential
        Al             3.00    26.98000     Al( 1.00)

     48 Sym. Ops., with inversion, found



   Cartesian axes

     site n.     atom                  positions (alat units)
         1           Al  tau(   1) = (   0.0000000   0.0000000   0.0000000  )

     number of k points=   328  Marzari-Vanderbilt smearing, width (Ry)=  0.0500

     Number of k-points >= 100: set verbosity='high' to print them.

     Dense  grid:      869 G-vectors     FFT dimensions: (  15,  15,  15)

     Estimated max dynamical RAM per process >       0.52 MB

     The potential is recalculated from file :
     /home/k-tsukamoto/win/Documents/QuantumEspresso/q-e-qe-6.7.0/tempdir/_ph0/al.save/charge-density

     Starting wfcs are    4 atomic +    2 random wfcs

     Band Structure Calculation
     Davidson diagonalization with overlap

     ethr =  3.33E-10,  avg # of iterations = 13.4

     total cpu time spent up to now is        6.4 secs

     End of band structure calculation

     Number of k-points >= 100: set verbosity='high' to print the bands.

     the Fermi energy is     8.1776 ev

     Writing output data file /home/k-tsukamoto/win/Documents/QuantumEspresso/q-e-qe-6.7.0/tempdir/_ph0/al.save/

     Phonon dispersions for Al                                                  

     bravais-lattice index     =            2
     lattice parameter (alat)  =       7.5000  a.u.
     unit-cell volume          =     105.4688 (a.u.)^3
     number of atoms/cell      =            1
     number of atomic types    =            1
     kinetic-energy cut-off    =      15.0000  Ry
     charge density cut-off    =      60.0000  Ry
     convergence threshold     =      1.0E-10
     beta                      =       0.7000
     number of iterations used =            4
     Exchange-correlation= PZ
                           (   1   1   0   0   0   0   0)


     celldm(1)=    7.50000  celldm(2)=    0.00000  celldm(3)=    0.00000
     celldm(4)=    0.00000  celldm(5)=    0.00000  celldm(6)=    0.00000

     crystal axes: (cart. coord. in units of alat)
               a(1) = ( -0.5000  0.0000  0.5000 )  
               a(2) = (  0.0000  0.5000  0.5000 )  
               a(3) = ( -0.5000  0.5000  0.0000 )  

     reciprocal axes: (cart. coord. in units 2 pi/alat)
               b(1) = ( -1.0000 -1.0000  1.0000 )  
               b(2) = (  1.0000  1.0000  1.0000 )  
               b(3) = ( -1.0000  1.0000 -1.0000 )  


     Atoms inside the unit cell: 

     Cartesian axes

     site n.  atom      mass           positions (alat units)
        1     Al  26.9800   tau(    1) = (    0.00000    0.00000    0.00000  )

     Computing dynamical matrix for 
                    q = (   0.5000000   0.0000000   0.5000000 )

      4 Sym.Ops. (no q -> -q+G )


     G cutoff =   85.4897  (    869 G-vectors)     FFT grid: ( 15, 15, 15)

     number of k points=   328  Marzari-Vanderbilt smearing, width (Ry)=  0.0500

     PseudoPot. # 1 for Al read from file:
     /home/k-tsukamoto/win/Documents/QuantumEspresso/q-e-qe-6.7.0/pseudo/Al.pz-vbc.UPF
     MD5 check sum: f06ceae8da0fe5c02c98e3688433298c
     Pseudo is Norm-conserving, Zval =  3.0
     Generated by new atomic code, or converted to UPF format
     Using radial grid of  171 points,  2 beta functions with: 
                l(1) =   0
                l(2) =   1

     Mode symmetry, C_2v (mm2)  point group:


     Atomic displacements:
     There are    3 irreducible representations

     Representation     1      1 modes -  To be done

     Representation     2      1 modes -  To be done

     Representation     3      1 modes -  To be done



     Alpha used in Ewald sum =   0.7000
     PHONON       :     11.30s CPU     13.27s WALL



     Representation #   1 mode #   1

     Self-consistent Calculation

      iter #   1 total cpu time :    13.4 secs   av.it.:   4.0
      thresh= 1.000E-02 alpha_mix =  0.700 |ddv_scf|^2 =  6.628E-04

      iter #   2 total cpu time :    13.5 secs   av.it.:   4.9
      thresh= 2.574E-03 alpha_mix =  0.700 |ddv_scf|^2 =  2.330E-03

      iter #   3 total cpu time :    13.7 secs   av.it.:   4.1
      thresh= 4.827E-03 alpha_mix =  0.700 |ddv_scf|^2 =  4.772E-08

      iter #   4 total cpu time :    13.8 secs   av.it.:   5.9
      thresh= 2.184E-05 alpha_mix =  0.700 |ddv_scf|^2 =  1.747E-09

      iter #   5 total cpu time :    13.9 secs   av.it.:   5.4
      thresh= 4.180E-06 alpha_mix =  0.700 |ddv_scf|^2 =  7.394E-11

     End of self-consistent calculation

     Convergence has been achieved 


     Representation #   2 mode #   2

     Self-consistent Calculation

      iter #   1 total cpu time :    14.1 secs   av.it.:   3.2
      thresh= 1.000E-02 alpha_mix =  0.700 |ddv_scf|^2 =  2.031E-07

      iter #   2 total cpu time :    14.2 secs   av.it.:   5.2
      thresh= 4.507E-05 alpha_mix =  0.700 |ddv_scf|^2 =  1.465E-08

      iter #   3 total cpu time :    14.3 secs   av.it.:   5.0
      thresh= 1.210E-05 alpha_mix =  0.700 |ddv_scf|^2 =  2.195E-10

      iter #   4 total cpu time :    14.5 secs   av.it.:   5.1
      thresh= 1.482E-06 alpha_mix =  0.700 |ddv_scf|^2 =  1.607E-13

     End of self-consistent calculation

     Convergence has been achieved 


     Representation #   3 mode #   3

     Self-consistent Calculation

      iter #   1 total cpu time :    14.6 secs   av.it.:   3.6
      thresh= 1.000E-02 alpha_mix =  0.700 |ddv_scf|^2 =  5.702E-06

      iter #   2 total cpu time :    14.8 secs   av.it.:   5.4
      thresh= 2.388E-04 alpha_mix =  0.700 |ddv_scf|^2 =  3.765E-07

      iter #   3 total cpu time :    14.9 secs   av.it.:   5.3
      thresh= 6.136E-05 alpha_mix =  0.700 |ddv_scf|^2 =  3.022E-09

      iter #   4 total cpu time :    15.0 secs   av.it.:   5.2
      thresh= 5.497E-06 alpha_mix =  0.700 |ddv_scf|^2 =  1.990E-12

     End of self-consistent calculation

     Convergence has been achieved 

     Number of q in the star =   12
     List of q in the star:
          1   0.500000000   0.000000000   0.500000000
          2  -0.500000000   0.000000000   0.500000000
          3  -0.500000000   0.000000000  -0.500000000
          4   0.500000000   0.000000000  -0.500000000
          5   0.000000000   0.500000000  -0.500000000
          6  -0.500000000   0.500000000   0.000000000
          7   0.000000000   0.500000000   0.500000000
          8   0.000000000  -0.500000000  -0.500000000
          9   0.500000000   0.500000000   0.000000000
         10   0.500000000  -0.500000000   0.000000000
         11  -0.500000000  -0.500000000   0.000000000
         12   0.000000000  -0.500000000   0.500000000

     Diagonalizing the dynamical matrix

     q = (    0.500000000   0.000000000   0.500000000 ) 

 **************************************************************************
     freq (    1) =       4.864101 [THz] =     162.248940 [cm-1]
     freq (    2) =       6.528752 [THz] =     217.775728 [cm-1]
     freq (    3) =       8.467431 [THz] =     282.443082 [cm-1]
 **************************************************************************

     Mode symmetry, C_2v (mm2)  point group:

     freq (   1-   1) =        162.2  [cm-1]   --> B_1  D_3  S_3      
     freq (   2-   2) =        217.8  [cm-1]   --> B_2  D_4  S_4      
     freq (   3-   3) =        282.4  [cm-1]   --> A_1  D_1  S_1      

     Calculation of q =    0.0000000  -1.0000000   0.0000000

     G-vector sticks info
     --------------------
     sticks:   dense  smooth     PW     G-vecs:    dense   smooth      PW
     Sum         121     121     61                  869      869     331


     Title: 
     Phonon dispersions for Al                                                  


     bravais-lattice index     =            2
     lattice parameter (alat)  =       7.5000  a.u.
     unit-cell volume          =     105.4688 (a.u.)^3
     number of atoms/cell      =            1
     number of atomic types    =            1
     number of electrons       =         3.00
     number of Kohn-Sham states=            6
     kinetic-energy cutoff     =      15.0000  Ry
     charge density cutoff     =      60.0000  Ry
     Exchange-correlation= PZ
                           (   1   1   0   0   0   0   0)

     celldm(1)=   7.500000  celldm(2)=   0.000000  celldm(3)=   0.000000
     celldm(4)=   0.000000  celldm(5)=   0.000000  celldm(6)=   0.000000

     crystal axes: (cart. coord. in units of alat)
               a(1) = (  -0.500000   0.000000   0.500000 )  
               a(2) = (   0.000000   0.500000   0.500000 )  
               a(3) = (  -0.500000   0.500000   0.000000 )  

     reciprocal axes: (cart. coord. in units 2 pi/alat)
               b(1) = ( -1.000000 -1.000000  1.000000 )  
               b(2) = (  1.000000  1.000000  1.000000 )  
               b(3) = ( -1.000000  1.000000 -1.000000 )  


     PseudoPot. # 1 for Al read from file:
     /home/k-tsukamoto/win/Documents/QuantumEspresso/q-e-qe-6.7.0/pseudo/Al.pz-vbc.UPF
     MD5 check sum: f06ceae8da0fe5c02c98e3688433298c
     Pseudo is Norm-conserving, Zval =  3.0
     Generated by new atomic code, or converted to UPF format
     Using radial grid of  171 points,  2 beta functions with: 
                l(1) =   0
                l(2) =   1

     atomic species   valence    mass     pseudopotential
        Al             3.00    26.98000     Al( 1.00)

     48 Sym. Ops., with inversion, found



   Cartesian axes

     site n.     atom                  positions (alat units)
         1           Al  tau(   1) = (   0.0000000   0.0000000   0.0000000  )

     number of k points=   118  Marzari-Vanderbilt smearing, width (Ry)=  0.0500

     Number of k-points >= 100: set verbosity='high' to print them.

     Dense  grid:      869 G-vectors     FFT dimensions: (  15,  15,  15)

     Estimated max dynamical RAM per process >       0.52 MB

     The potential is recalculated from file :
     /home/k-tsukamoto/win/Documents/QuantumEspresso/q-e-qe-6.7.0/tempdir/_ph0/al.save/charge-density

     Starting wfcs are    4 atomic +    2 random wfcs

     Band Structure Calculation
     Davidson diagonalization with overlap

     ethr =  3.33E-10,  avg # of iterations = 13.2

     total cpu time spent up to now is        7.0 secs

     End of band structure calculation

     Number of k-points >= 100: set verbosity='high' to print the bands.

     the Fermi energy is     8.1776 ev

     Writing output data file /home/k-tsukamoto/win/Documents/QuantumEspresso/q-e-qe-6.7.0/tempdir/_ph0/al.save/

     Phonon dispersions for Al                                                  

     bravais-lattice index     =            2
     lattice parameter (alat)  =       7.5000  a.u.
     unit-cell volume          =     105.4688 (a.u.)^3
     number of atoms/cell      =            1
     number of atomic types    =            1
     kinetic-energy cut-off    =      15.0000  Ry
     charge density cut-off    =      60.0000  Ry
     convergence threshold     =      1.0E-10
     beta                      =       0.7000
     number of iterations used =            4
     Exchange-correlation= PZ
                           (   1   1   0   0   0   0   0)


     celldm(1)=    7.50000  celldm(2)=    0.00000  celldm(3)=    0.00000
     celldm(4)=    0.00000  celldm(5)=    0.00000  celldm(6)=    0.00000

     crystal axes: (cart. coord. in units of alat)
               a(1) = ( -0.5000  0.0000  0.5000 )  
               a(2) = (  0.0000  0.5000  0.5000 )  
               a(3) = ( -0.5000  0.5000  0.0000 )  

     reciprocal axes: (cart. coord. in units 2 pi/alat)
               b(1) = ( -1.0000 -1.0000  1.0000 )  
               b(2) = (  1.0000  1.0000  1.0000 )  
               b(3) = ( -1.0000  1.0000 -1.0000 )  


     Atoms inside the unit cell: 

     Cartesian axes

     site n.  atom      mass           positions (alat units)
        1     Al  26.9800   tau(    1) = (    0.00000    0.00000    0.00000  )

     Computing dynamical matrix for 
                    q = (   0.0000000  -1.0000000   0.0000000 )

     17 Sym.Ops. (with q -> -q+G )


     G cutoff =   85.4897  (    869 G-vectors)     FFT grid: ( 15, 15, 15)

     number of k points=   118  Marzari-Vanderbilt smearing, width (Ry)=  0.0500

     PseudoPot. # 1 for Al read from file:
     /home/k-tsukamoto/win/Documents/QuantumEspresso/q-e-qe-6.7.0/pseudo/Al.pz-vbc.UPF
     MD5 check sum: f06ceae8da0fe5c02c98e3688433298c
     Pseudo is Norm-conserving, Zval =  3.0
     Generated by new atomic code, or converted to UPF format
     Using radial grid of  171 points,  2 beta functions with: 
                l(1) =   0
                l(2) =   1

     Mode symmetry, D_4h(4/mmm) point group:


     Atomic displacements:
     There are    2 irreducible representations

     Representation     1      1 modes -  To be done

     Representation     2      2 modes -  To be done



     Alpha used in Ewald sum =   0.7000
     PHONON       :     13.16s CPU     15.58s WALL



     Representation #   1 mode #   1

     Self-consistent Calculation

      iter #   1 total cpu time :    15.6 secs   av.it.:   3.8
      thresh= 1.000E-02 alpha_mix =  0.700 |ddv_scf|^2 =  6.930E-05

      iter #   2 total cpu time :    15.7 secs   av.it.:   5.1
      thresh= 8.325E-04 alpha_mix =  0.700 |ddv_scf|^2 =  2.668E-05

      iter #   3 total cpu time :    15.7 secs   av.it.:   4.9
      thresh= 5.166E-04 alpha_mix =  0.700 |ddv_scf|^2 =  5.194E-09

      iter #   4 total cpu time :    15.8 secs   av.it.:   5.0
      thresh= 7.207E-06 alpha_mix =  0.700 |ddv_scf|^2 =  2.877E-11

     End of self-consistent calculation

     Convergence has been achieved 


     Representation #   2 modes #   2   3

     Self-consistent Calculation

      iter #   1 total cpu time :    15.9 secs   av.it.:   3.5
      thresh= 1.000E-02 alpha_mix =  0.700 |ddv_scf|^2 =  3.162E-07

      iter #   2 total cpu time :    16.0 secs   av.it.:   5.8
      thresh= 5.623E-05 alpha_mix =  0.700 |ddv_scf|^2 =  4.472E-09

      iter #   3 total cpu time :    16.1 secs   av.it.:   5.5
      thresh= 6.688E-06 alpha_mix =  0.700 |ddv_scf|^2 =  4.215E-10

      iter #   4 total cpu time :    16.2 secs   av.it.:   5.3
      thresh= 2.053E-06 alpha_mix =  0.700 |ddv_scf|^2 =  1.725E-14

     End of self-consistent calculation

     Convergence has been achieved 

     Number of q in the star =    3
     List of q in the star:
          1   0.000000000  -1.000000000   0.000000000
          2  -1.000000000   0.000000000   0.000000000
          3   0.000000000   0.000000000  -1.000000000

     Diagonalizing the dynamical matrix

     q = (    0.000000000  -1.000000000   0.000000000 ) 

 **************************************************************************
     freq (    1) =       6.062713 [THz] =     202.230324 [cm-1]
     freq (    2) =       6.062713 [THz] =     202.230324 [cm-1]
     freq (    3) =       9.881150 [THz] =     329.599697 [cm-1]
 **************************************************************************

     Mode symmetry, D_4h(4/mmm) point group:

     freq (   1-   2) =        202.2  [cm-1]   --> E_u  X_5' M_5'     
     freq (   3-   3) =        329.6  [cm-1]   --> A_2u X_4' M_4'     

     Calculation of q =   -0.5000000  -1.0000000   0.0000000

     G-vector sticks info
     --------------------
     sticks:   dense  smooth     PW     G-vecs:    dense   smooth      PW
     Sum         121     121     61                  869      869     331


     Title: 
     Phonon dispersions for Al                                                  


     bravais-lattice index     =            2
     lattice parameter (alat)  =       7.5000  a.u.
     unit-cell volume          =     105.4688 (a.u.)^3
     number of atoms/cell      =            1
     number of atomic types    =            1
     number of electrons       =         3.00
     number of Kohn-Sham states=            6
     kinetic-energy cutoff     =      15.0000  Ry
     charge density cutoff     =      60.0000  Ry
     Exchange-correlation= PZ
                           (   1   1   0   0   0   0   0)

     celldm(1)=   7.500000  celldm(2)=   0.000000  celldm(3)=   0.000000
     celldm(4)=   0.000000  celldm(5)=   0.000000  celldm(6)=   0.000000

     crystal axes: (cart. coord. in units of alat)
               a(1) = (  -0.500000   0.000000   0.500000 )  
               a(2) = (   0.000000   0.500000   0.500000 )  
               a(3) = (  -0.500000   0.500000   0.000000 )  

     reciprocal axes: (cart. coord. in units 2 pi/alat)
               b(1) = ( -1.000000 -1.000000  1.000000 )  
               b(2) = (  1.000000  1.000000  1.000000 )  
               b(3) = ( -1.000000  1.000000 -1.000000 )  


     PseudoPot. # 1 for Al read from file:
     /home/k-tsukamoto/win/Documents/QuantumEspresso/q-e-qe-6.7.0/pseudo/Al.pz-vbc.UPF
     MD5 check sum: f06ceae8da0fe5c02c98e3688433298c
     Pseudo is Norm-conserving, Zval =  3.0
     Generated by new atomic code, or converted to UPF format
     Using radial grid of  171 points,  2 beta functions with: 
                l(1) =   0
                l(2) =   1

     atomic species   valence    mass     pseudopotential
        Al             3.00    26.98000     Al( 1.00)

     48 Sym. Ops., with inversion, found



   Cartesian axes

     site n.     atom                  positions (alat units)
         1           Al  tau(   1) = (   0.0000000   0.0000000   0.0000000  )

     number of k points=   174  Marzari-Vanderbilt smearing, width (Ry)=  0.0500

     Number of k-points >= 100: set verbosity='high' to print them.

     Dense  grid:      869 G-vectors     FFT dimensions: (  15,  15,  15)

     Estimated max dynamical RAM per process >       0.52 MB

     The potential is recalculated from file :
     /home/k-tsukamoto/win/Documents/QuantumEspresso/q-e-qe-6.7.0/tempdir/_ph0/al.save/charge-density

     Starting wfcs are    4 atomic +    2 random wfcs

     Band Structure Calculation
     Davidson diagonalization with overlap

     ethr =  3.33E-10,  avg # of iterations = 13.3

     total cpu time spent up to now is        7.7 secs

     End of band structure calculation

     Number of k-points >= 100: set verbosity='high' to print the bands.

     the Fermi energy is     8.1776 ev

     Writing output data file /home/k-tsukamoto/win/Documents/QuantumEspresso/q-e-qe-6.7.0/tempdir/_ph0/al.save/

     Phonon dispersions for Al                                                  

     bravais-lattice index     =            2
     lattice parameter (alat)  =       7.5000  a.u.
     unit-cell volume          =     105.4688 (a.u.)^3
     number of atoms/cell      =            1
     number of atomic types    =            1
     kinetic-energy cut-off    =      15.0000  Ry
     charge density cut-off    =      60.0000  Ry
     convergence threshold     =      1.0E-10
     beta                      =       0.7000
     number of iterations used =            4
     Exchange-correlation= PZ
                           (   1   1   0   0   0   0   0)


     celldm(1)=    7.50000  celldm(2)=    0.00000  celldm(3)=    0.00000
     celldm(4)=    0.00000  celldm(5)=    0.00000  celldm(6)=    0.00000

     crystal axes: (cart. coord. in units of alat)
               a(1) = ( -0.5000  0.0000  0.5000 )  
               a(2) = (  0.0000  0.5000  0.5000 )  
               a(3) = ( -0.5000  0.5000  0.0000 )  

     reciprocal axes: (cart. coord. in units 2 pi/alat)
               b(1) = ( -1.0000 -1.0000  1.0000 )  
               b(2) = (  1.0000  1.0000  1.0000 )  
               b(3) = ( -1.0000  1.0000 -1.0000 )  


     Atoms inside the unit cell: 

     Cartesian axes

     site n.  atom      mass           positions (alat units)
        1     Al  26.9800   tau(    1) = (    0.00000    0.00000    0.00000  )

     Computing dynamical matrix for 
                    q = (  -0.5000000  -1.0000000   0.0000000 )

      8 Sym.Ops. (no q -> -q+G )


     G cutoff =   85.4897  (    869 G-vectors)     FFT grid: ( 15, 15, 15)

     number of k points=   174  Marzari-Vanderbilt smearing, width (Ry)=  0.0500

     PseudoPot. # 1 for Al read from file:
     /home/k-tsukamoto/win/Documents/QuantumEspresso/q-e-qe-6.7.0/pseudo/Al.pz-vbc.UPF
     MD5 check sum: f06ceae8da0fe5c02c98e3688433298c
     Pseudo is Norm-conserving, Zval =  3.0
     Generated by new atomic code, or converted to UPF format
     Using radial grid of  171 points,  2 beta functions with: 
                l(1) =   0
                l(2) =   1

     Mode symmetry, D_2d (-42m) point group:


     Atomic displacements:
     There are    2 irreducible representations

     Representation     1      1 modes -  To be done

     Representation     2      2 modes -  To be done



     Alpha used in Ewald sum =   0.7000
     PHONON       :     14.36s CPU     17.02s WALL



     Representation #   1 mode #   1

     Self-consistent Calculation

      iter #   1 total cpu time :    17.1 secs   av.it.:   3.8
      thresh= 1.000E-02 alpha_mix =  0.700 |ddv_scf|^2 =  9.515E-06

      iter #   2 total cpu time :    17.2 secs   av.it.:   5.5
      thresh= 3.085E-04 alpha_mix =  0.700 |ddv_scf|^2 =  1.466E-06

      iter #   3 total cpu time :    17.2 secs   av.it.:   5.3
      thresh= 1.211E-04 alpha_mix =  0.700 |ddv_scf|^2 =  3.897E-09

      iter #   4 total cpu time :    17.3 secs   av.it.:   5.3
      thresh= 6.243E-06 alpha_mix =  0.700 |ddv_scf|^2 =  8.889E-12

     End of self-consistent calculation

     Convergence has been achieved 


     Representation #   2 modes #   2   3

     Self-consistent Calculation

      iter #   1 total cpu time :    17.5 secs   av.it.:   3.6
      thresh= 1.000E-02 alpha_mix =  0.700 |ddv_scf|^2 =  5.498E-06

      iter #   2 total cpu time :    17.6 secs   av.it.:   5.7
      thresh= 2.345E-04 alpha_mix =  0.700 |ddv_scf|^2 =  1.167E-06

      iter #   3 total cpu time :    17.8 secs   av.it.:   5.5
      thresh= 1.080E-04 alpha_mix =  0.700 |ddv_scf|^2 =  1.058E-09

      iter #   4 total cpu time :    17.9 secs   av.it.:   5.5
      thresh= 3.253E-06 alpha_mix =  0.700 |ddv_scf|^2 =  1.586E-12

     End of self-consistent calculation

     Convergence has been achieved 

     Number of q in the star =    6
     List of q in the star:
          1  -0.500000000  -1.000000000   0.000000000
          2   0.000000000   1.000000000   0.500000000
          3   0.000000000  -1.000000000  -0.500000000
          4   0.500000000   1.000000000   0.000000000
          5  -1.000000000  -0.500000000   0.000000000
          6   0.000000000  -0.500000000  -1.000000000

     Diagonalizing the dynamical matrix

     q = (   -0.500000000  -1.000000000   0.000000000 ) 

 **************************************************************************
     freq (    1) =       6.453889 [THz] =     215.278566 [cm-1]
     freq (    2) =       7.608394 [THz] =     253.788715 [cm-1]
     freq (    3) =       7.608394 [THz] =     253.788715 [cm-1]
 **************************************************************************

     Mode symmetry, D_2d (-42m) point group:

     freq (   1-   1) =        215.3  [cm-1]   --> B_2  X_3  W_2      
     freq (   2-   3) =        253.8  [cm-1]   --> E    X_5  W_3      

     init_run     :      0.03s CPU      0.04s WALL (       7 calls)
     electrons    :      6.75s CPU      7.60s WALL (       7 calls)

     Called by init_run:
     wfcinit      :      0.00s CPU      0.00s WALL (       7 calls)
     potinit      :      0.02s CPU      0.01s WALL (       7 calls)
     hinit0       :      0.02s CPU      0.02s WALL (       7 calls)

     Called by electrons:
     c_bands      :      6.75s CPU      7.60s WALL (       7 calls)
     v_of_rho     :      0.00s CPU      0.00s WALL (       8 calls)

     Called by c_bands:
     init_us_2    :      0.14s CPU      0.20s WALL (   16293 calls)
     cegterg      :      6.16s CPU      6.73s WALL (    1845 calls)

     Called by *egterg:
     cdiaghg      :      1.25s CPU      1.40s WALL (   25501 calls)
     h_psi        :      8.72s CPU      9.89s WALL (   96057 calls)
     g_psi        :      0.06s CPU      0.05s WALL (   23735 calls)

     Called by h_psi:
     h_psi:calbec :      0.27s CPU      0.33s WALL (   96057 calls)
     vloc_psi     :      8.08s CPU      8.92s WALL (   96057 calls)
     add_vuspsi   :      0.27s CPU      0.19s WALL (   96057 calls)

     General routines
     calbec       :      0.31s CPU      0.36s WALL (  184861 calls)
     fft          :      0.00s CPU      0.01s WALL (     347 calls)
     ffts         :      0.12s CPU      0.07s WALL (    2839 calls)
     fftw         :      9.14s CPU      9.47s WALL (  572010 calls)
     davcio       :      0.02s CPU      0.55s WALL (   62277 calls)


     PHONON       :     15.11s CPU     17.94s WALL

     INITIALIZATION: 
     phq_setup    :      0.00s CPU      0.03s WALL (       8 calls)
     phq_init     :      0.06s CPU      0.12s WALL (       8 calls)

     phq_init     :      0.06s CPU      0.12s WALL (       8 calls)
     init_vloc    :      0.00s CPU      0.00s WALL (       8 calls)
     init_us_1    :      0.02s CPU      0.01s WALL (       8 calls)

     DYNAMICAL MATRIX:
     dynmat0      :      0.05s CPU      0.07s WALL (       8 calls)
     phqscf       :      8.11s CPU      9.88s WALL (       8 calls)
     dynmatrix    :      0.00s CPU      0.01s WALL (       8 calls)

     phqscf       :      8.11s CPU      9.88s WALL (       8 calls)
     solve_linter :      8.03s CPU      9.69s WALL (      17 calls)
     drhodv       :      0.08s CPU      0.11s WALL (      17 calls)

     dynmat0      :      0.05s CPU      0.07s WALL (       8 calls)
     dynmat_us    :      0.05s CPU      0.05s WALL (       8 calls)
     d2ionq       :      0.00s CPU      0.00s WALL (       8 calls)

     dynmat_us    :      0.05s CPU      0.05s WALL (       8 calls)

     phqscf       :      8.11s CPU      9.88s WALL (       8 calls)
     solve_linter :      8.03s CPU      9.69s WALL (      17 calls)

     solve_linter :      8.03s CPU      9.69s WALL (      17 calls)
     dvqpsi_us    :      0.84s CPU      0.78s WALL (    2736 calls)
     ortho        :      0.06s CPU      0.08s WALL (   12140 calls)
     cgsolve      :      4.86s CPU      6.07s WALL (   12140 calls)
     incdrhoscf   :      1.12s CPU      1.01s WALL (   12140 calls)
     vpsifft      :      0.89s CPU      0.77s WALL (    9404 calls)
     dv_of_drho   :      0.00s CPU      0.01s WALL (      99 calls)
     mix_pot      :      0.00s CPU      0.06s WALL (      75 calls)
     ef_shift     :      0.00s CPU      0.00s WALL (       4 calls)
     localdos     :      0.00s CPU      0.00s WALL (       1 calls)
     symdvscf     :      0.06s CPU      0.07s WALL (      75 calls)

     dvqpsi_us    :      0.84s CPU      0.78s WALL (    2736 calls)
     dvqpsi_us_on :      0.02s CPU      0.04s WALL (    2736 calls)

     cgsolve      :      4.86s CPU      6.07s WALL (   12140 calls)
     ch_psi       :      4.64s CPU      5.87s WALL (   68711 calls)

     ch_psi       :      4.64s CPU      5.87s WALL (   68711 calls)
     h_psi        :      8.72s CPU      9.89s WALL (   96057 calls)
     last         :      0.36s CPU      0.40s WALL (   68711 calls)

     h_psi        :      8.72s CPU      9.89s WALL (   96057 calls)
     add_vuspsi   :      0.27s CPU      0.19s WALL (   96057 calls)

     incdrhoscf   :      1.12s CPU      1.01s WALL (   12140 calls)


      General routines
     calbec       :      0.31s CPU      0.36s WALL (  184861 calls)
     fft          :      0.00s CPU      0.01s WALL (     347 calls)
     ffts         :      0.12s CPU      0.07s WALL (    2839 calls)
     fftw         :      9.14s CPU      9.47s WALL (  572010 calls)
     davcio       :      0.02s CPU      0.55s WALL (   62277 calls)
     write_rec    :      0.00s CPU      0.19s WALL (      92 calls)


     PHONON       :     15.11s CPU     17.94s WALL


   This run was terminated on:  14:47:37  27Jun2021            

=------------------------------------------------------------------------------=
   JOB DONE.
=------------------------------------------------------------------------------=
