
     Program PWSCF v.6.7MaX starts on 26Jun2021 at 20:54:34 

     This program is part of the open-source Quantum ESPRESSO suite
     for quantum simulation of materials; please cite
         "P. Giannozzi et al., J. Phys.:Condens. Matter 21 395502 (2009);
         "P. Giannozzi et al., J. Phys.:Condens. Matter 29 465901 (2017);
          URL http://www.quantum-espresso.org", 
     in publications or presentations arising from this work. More details at
     http://www.quantum-espresso.org/quote

     Serial version
     Reading input from al.band.cg.in

     Current dimensions of program PWSCF are:
     Max number of different atomic species (ntypx) = 10
     Max number of k-points (npk) =  40000
     Max angular momentum in pseudopotentials (lmaxx) =  3

     Atomic positions and unit cell read from directory:
     /home/k-tsukamoto/win/Documents/QuantumEspresso/q-e-qe-6.7.0/tempdir/al.save/


     G-vector sticks info
     --------------------
     sticks:   dense  smooth     PW     G-vecs:    dense   smooth      PW
     Sum         121     121     43                  869      869     181



     bravais-lattice index     =            2
     lattice parameter (alat)  =       7.5000  a.u.
     unit-cell volume          =     105.4688 (a.u.)^3
     number of atoms/cell      =            1
     number of atomic types    =            1
     number of electrons       =         3.00
     number of Kohn-Sham states=            8
     kinetic-energy cutoff     =      15.0000  Ry
     charge density cutoff     =      60.0000  Ry
     Exchange-correlation= SLA  PZ   NOGX NOGC
                           (   1   1   0   0   0   0   0)

     celldm(1)=   7.500000  celldm(2)=   0.000000  celldm(3)=   0.000000
     celldm(4)=   0.000000  celldm(5)=   0.000000  celldm(6)=   0.000000

     crystal axes: (cart. coord. in units of alat)
               a(1) = (  -0.500000   0.000000   0.500000 )  
               a(2) = (   0.000000   0.500000   0.500000 )  
               a(3) = (  -0.500000   0.500000   0.000000 )  

     reciprocal axes: (cart. coord. in units 2 pi/alat)
               b(1) = ( -1.000000 -1.000000  1.000000 )  
               b(2) = (  1.000000  1.000000  1.000000 )  
               b(3) = ( -1.000000  1.000000 -1.000000 )  


     PseudoPot. # 1 for Al read from file:
     /home/k-tsukamoto/win/Documents/QuantumEspresso/q-e-qe-6.7.0/pseudo/Al.pz-vbc.UPF
     MD5 check sum: f06ceae8da0fe5c02c98e3688433298c
     Pseudo is Norm-conserving, Zval =  3.0
     Generated by new atomic code, or converted to UPF format
     Using radial grid of  171 points,  2 beta functions with: 
                l(1) =   0
                l(2) =   1

     atomic species   valence    mass     pseudopotential
        Al             3.00    26.98000     Al( 1.00)

     48 Sym. Ops., with inversion, found



   Cartesian axes

     site n.     atom                  positions (alat units)
         1           Al  tau(   1) = (   0.0000000   0.0000000   0.0000000  )

     number of k points=   202

     Number of k-points >= 100: set verbosity='high' to print them.

     Dense  grid:      869 G-vectors     FFT dimensions: (  15,  15,  15)

     Estimated max dynamical RAM per process >       0.44 MB

     The potential is recalculated from file :
     /home/k-tsukamoto/win/Documents/QuantumEspresso/q-e-qe-6.7.0/tempdir/al.save/charge-density

     Starting wfcs are    4 randomized atomic wfcs +    4 random wfcs

     Band Structure Calculation
     CG style diagonalization

     ethr =  3.33E-08,  avg # of iterations = 17.6

     total cpu time spent up to now is        2.0 secs

     End of band structure calculation

     Number of k-points >= 100: set verbosity='high' to print the bands.

     Writing output data file /home/k-tsukamoto/win/Documents/QuantumEspresso/q-e-qe-6.7.0/tempdir/al.save/

     init_run     :      0.00s CPU      0.01s WALL (       1 calls)
     electrons    :      1.34s CPU      1.85s WALL (       1 calls)

     Called by init_run:
     wfcinit      :      0.00s CPU      0.00s WALL (       1 calls)
     potinit      :      0.00s CPU      0.00s WALL (       1 calls)
     hinit0       :      0.00s CPU      0.00s WALL (       1 calls)

     Called by electrons:
     c_bands      :      1.34s CPU      1.85s WALL (       1 calls)
     v_of_rho     :      0.00s CPU      0.00s WALL (       1 calls)

     Called by c_bands:
     init_us_2    :      0.00s CPU      0.00s WALL (     202 calls)
     ccgdiagg     :      1.12s CPU      1.65s WALL (     383 calls)
     wfcrot       :      0.22s CPU      0.15s WALL (     383 calls)

     Called by *cgdiagg:
     h_psi        :      1.16s CPU      1.39s WALL (   27010 calls)

     Called by h_psi:
     h_psi:calbec :      0.05s CPU      0.08s WALL (   27010 calls)
     vloc_psi     :      1.03s CPU      1.15s WALL (   27010 calls)
     add_vuspsi   :      0.03s CPU      0.04s WALL (   27010 calls)
     hs_1psi      :      0.97s CPU      1.38s WALL (   26627 calls)
     s_1psi       :      0.03s CPU      0.11s WALL (   26627 calls)

     General routines
     calbec       :      0.03s CPU      0.07s WALL (   53637 calls)
     fft          :      0.00s CPU      0.00s WALL (       3 calls)
     fftw         :      0.92s CPU      0.96s WALL (   59382 calls)
     davcio       :      0.00s CPU      0.01s WALL (     404 calls)


     PWSCF        :      1.47s CPU      2.11s WALL


   This run was terminated on:  20:54:36  26Jun2021            

=------------------------------------------------------------------------------=
   JOB DONE.
=------------------------------------------------------------------------------=
