
     Program BANDS v.6.7MaX starts on 26Jun2021 at 20:55: 3 

     This program is part of the open-source Quantum ESPRESSO suite
     for quantum simulation of materials; please cite
         "P. Giannozzi et al., J. Phys.:Condens. Matter 21 395502 (2009);
         "P. Giannozzi et al., J. Phys.:Condens. Matter 29 465901 (2017);
          URL http://www.quantum-espresso.org", 
     in publications or presentations arising from this work. More details at
     http://www.quantum-espresso.org/quote

     Serial version

     Reading xml data from directory:

     /home/k-tsukamoto/win/Documents/QuantumEspresso/q-e-qe-6.7.0/tempdir/al.save/

     IMPORTANT: XC functional enforced from input :
     Exchange-correlation= PZ
                           (   1   1   0   0   0   0   0)
     Any further DFT definition will be discarded
     Please, verify this is what you really want


     G-vector sticks info
     --------------------
     sticks:   dense  smooth     PW     G-vecs:    dense   smooth      PW
     Sum         121     121     43                  869      869     181

     Reading collected, re-writing distributed wavefunctions
     high-symmetry point:  0.0000 0.0000 0.0000   x coordinate   0.0000
     high-symmetry point:  0.0000 1.0000 0.0000   x coordinate   1.0000
     high-symmetry point:  0.5000 1.0000 0.0000   x coordinate   1.5000
     high-symmetry point:  0.7500 0.7500 0.0000   x coordinate   1.8536
     high-symmetry point:  0.0000 0.0000 0.0000   x coordinate   2.9142
     high-symmetry point:  0.5000 0.5000 0.5000   x coordinate   3.7802
     high-symmetry point:  0.2500 1.0000 0.2500   x coordinate   4.3926
     high-symmetry point:  0.5000 1.0000 0.0000   x coordinate   4.7462
     high-symmetry point:  0.5000 0.5000 0.5000   x coordinate   5.4533
     high-symmetry point:  0.7500 0.7500 0.0000   x coordinate   6.0656
     high-symmetry point:  0.2500 1.0000 0.2500   x coordinate   6.0656
     high-symmetry point:  0.0000 1.0000 0.0000   x coordinate   6.4192

     Plottable bands (eV) written to file al.band.cg.gnu
     Bands written to file al.band.cg

 **************************************************************************

                    xk=(   0.00000,   0.00000,   0.00000  )

     point group O_h (m-3m) 
     there are 10 classes
     the character table:

       E     8C3   3C2   6C4   6C2'  i     8S6   3s_h  6S4   6s_d 
A_1g   1.00  1.00  1.00  1.00  1.00  1.00  1.00  1.00  1.00  1.00
A_2g   1.00  1.00  1.00 -1.00 -1.00  1.00  1.00  1.00 -1.00 -1.00
E_g    2.00 -1.00  2.00  0.00  0.00  2.00 -1.00  2.00  0.00  0.00
T_1g   3.00  0.00 -1.00  1.00 -1.00  3.00  0.00 -1.00  1.00 -1.00
T_2g   3.00  0.00 -1.00 -1.00  1.00  3.00  0.00 -1.00 -1.00  1.00
A_1u   1.00  1.00  1.00  1.00  1.00 -1.00 -1.00 -1.00 -1.00 -1.00
A_2u   1.00  1.00  1.00 -1.00 -1.00 -1.00 -1.00 -1.00  1.00  1.00
E_u    2.00 -1.00  2.00  0.00  0.00 -2.00  1.00 -2.00  0.00  0.00
T_1u   3.00  0.00 -1.00  1.00 -1.00 -3.00  0.00  1.00 -1.00  1.00
T_2u   3.00  0.00 -1.00 -1.00  1.00 -3.00  0.00  1.00  1.00 -1.00

     the symmetry operations in each class and the name of the first element:

     E        1
                                                                 
     8C3     17   19   20   18   24   21   22   23
                                                                 
     3C2      2    4    3
                                                                 
     6C4      7    8   15   16   12   11
                                                                 
     6C2'     5    6   14   13   10    9
                                                                 
     i       25
                                                                 
     8S6     41   43   44   42   48   45   46   47
                                                                 
     3s_h    26   28   27
                                                                 
     6S4     31   32   39   40   36   35
                                                                 
     6s_d    29   30   38   37   34   33
                                                                 

     Band symmetry, O_h (m-3m)  point group:

     e(  1 -  1) =     -3.19109  eV     1   --> A_1g G_1   G_1+
     e(  2 -  4) =     21.17789  eV     3   --> T_2g G_25' G_5+
     e(  5 -  7) =     22.55482  eV     3   --> T_1u G_15  G_4-
     e(  8 -  8) =     25.05944  eV     1   --> A_2u G_2'  G_2-

 **************************************************************************

 **************************************************************************

                    xk=(   0.00000,   0.05000,   0.00000  )

     point group C_4v (4mm) 
     there are  5 classes
     the character table:

       E     2C4   C2    2s_v  2s_d 
A_1    1.00  1.00  1.00  1.00  1.00
A_2    1.00  1.00  1.00 -1.00 -1.00
B_1    1.00 -1.00  1.00  1.00 -1.00
B_2    1.00 -1.00  1.00 -1.00  1.00
E      2.00  0.00 -2.00  0.00  0.00

     the symmetry operations in each class and the name of the first element:

     E        1
                                                                 
     2C4      3    4
                                                                 
     C2       2
                                                                 
     2s_v     5    6
                                                                 
     2s_d     7    8
                                                                 

     Band symmetry, C_4v (4mm)  point group:

     e(  1 -  1) =     -3.16731  eV     1   --> A_1  G_1 D_1   
     e(  2 -  3) =     20.84402  eV     2   --> E    G_5 D_5   
     e(  4 -  4) =     20.98158  eV     1   --> B_2  G_4 D_2'  
     e(  5 -  5) =     22.50311  eV     1   --> A_1  G_1 D_1   
     e(  6 -  7) =     22.92456  eV     2   --> E    G_5 D_5   
     e(  8 -  8) =     25.30297  eV     1   --> B_2  G_4 D_2'  

 **************************************************************************

 **************************************************************************

                    xk=(   0.00000,   0.10000,   0.00000  )

     Band symmetry, C_4v (4mm)  point group:

     e(  1 -  1) =     -3.09602  eV     1   --> A_1  G_1 D_1   
     e(  2 -  3) =     20.23453  eV     2   --> E    G_5 D_5   
     e(  4 -  4) =     20.49750  eV     1   --> B_2  G_4 D_2'  
     e(  5 -  5) =     22.35375  eV     1   --> A_1  G_1 D_1   
     e(  6 -  7) =     23.64107  eV     2   --> E    G_5 D_5   
     e(  8 -  8) =     25.92872  eV     1   --> B_2  G_4 D_2'  

 **************************************************************************

 **************************************************************************

                    xk=(   0.00000,   0.15000,   0.00000  )

     Band symmetry, C_4v (4mm)  point group:

     e(  1 -  1) =     -2.97731  eV     1   --> A_1  G_1 D_1   
     e(  2 -  3) =     19.59420  eV     2   --> E    G_5 D_5   
     e(  4 -  4) =     19.88382  eV     1   --> B_2  G_4 D_2'  
     e(  5 -  5) =     22.12181  eV     1   --> A_1  G_1 D_1   
     e(  6 -  7) =     24.45775  eV     2   --> E    G_5 D_5   
     e(  8 -  8) =     25.93466  eV     1   --> A_1  G_1 D_1   

 **************************************************************************

 **************************************************************************

                    xk=(   0.00000,   0.20000,   0.00000  )

     Band symmetry, C_4v (4mm)  point group:

     e(  1 -  1) =     -2.80977  eV     1   --> A_1  G_1 D_1   
     e(  2 -  3) =     18.97306  eV     2   --> E    G_5 D_5   
     e(  4 -  4) =     19.23062  eV     1   --> B_2  G_4 D_2'  
     e(  5 -  5) =     21.82844  eV     1   --> A_1  G_1 D_1   
     e(  6 -  6) =     24.61663  eV     1   --> A_1  G_1 D_1   
     e(  7 -  8) =     25.32425  eV     2   --> E    G_5 D_5   

 **************************************************************************

 **************************************************************************

                    xk=(   0.00000,   0.25000,   0.00000  )

     Band symmetry, C_4v (4mm)  point group:

     e(  1 -  1) =     -2.59693  eV     1   --> A_1  G_1 D_1   
     e(  2 -  3) =     18.37987  eV     2   --> E    G_5 D_5   
     e(  4 -  4) =     18.57931  eV     1   --> B_2  G_4 D_2'  
     e(  5 -  5) =     21.48902  eV     1   --> A_1  G_1 D_1   
     e(  6 -  6) =     23.25934  eV     1   --> A_1  G_1 D_1   
     e(  7 -  8) =     26.22110  eV     2   --> E    G_5 D_5   

 **************************************************************************

 **************************************************************************

                    xk=(   0.00000,   0.30000,   0.00000  )

     Band symmetry, C_4v (4mm)  point group:

     e(  1 -  1) =     -2.33739  eV     1   --> A_1  G_1 D_1   
     e(  2 -  3) =     17.82175  eV     2   --> E    G_5 D_5   
     e(  4 -  4) =     17.94942  eV     1   --> B_2  G_4 D_2'  
     e(  5 -  5) =     21.12204  eV     1   --> A_1  G_1 D_1   
     e(  6 -  6) =     21.90358  eV     1   --> A_1  G_1 D_1   
     e(  7 -  8) =     27.13756  eV     2   --> E    G_5 D_5   

 **************************************************************************

 **************************************************************************

                    xk=(   0.00000,   0.35000,   0.00000  )

     Band symmetry, C_4v (4mm)  point group:

     e(  1 -  1) =     -2.03003  eV     1   --> A_1  G_1 D_1   
     e(  2 -  3) =     17.30532  eV     2   --> E    G_5 D_5   
     e(  4 -  4) =     17.34909  eV     1   --> B_2  G_4 D_2'  
     e(  5 -  5) =     20.54590  eV     1   --> A_1  G_1 D_1   
     e(  6 -  6) =     20.75180  eV     1   --> A_1  G_1 D_1   
     e(  7 -  8) =     28.05775  eV     2   --> E    G_5 D_5   

 **************************************************************************

 **************************************************************************

                    xk=(   0.00000,   0.40000,   0.00000  )

     Band symmetry, C_4v (4mm)  point group:

     e(  1 -  1) =     -1.67442  eV     1   --> A_1  G_1 D_1   
     e(  2 -  2) =     16.78765  eV     1   --> B_2  G_4 D_2'  
     e(  3 -  4) =     16.82898  eV     2   --> E    G_5 D_5   
     e(  5 -  5) =     19.24139  eV     1   --> A_1  G_1 D_1   
     e(  6 -  6) =     20.36155  eV     1   --> A_1  G_1 D_1   
     e(  7 -  8) =     28.98554  eV     2   --> E    G_5 D_5   

 **************************************************************************

 **************************************************************************

                    xk=(   0.00000,   0.45000,   0.00000  )

     Band symmetry, C_4v (4mm)  point group:

     e(  1 -  1) =     -1.27755  eV     1   --> A_1  G_1 D_1   
     e(  2 -  2) =     16.26611  eV     1   --> B_2  G_4 D_2'  
     e(  3 -  4) =     16.38403  eV     2   --> E    G_5 D_5   
     e(  5 -  5) =     17.95242  eV     1   --> A_1  G_1 D_1   
     e(  6 -  6) =     19.98824  eV     1   --> A_1  G_1 D_1   
     e(  7 -  8) =     29.89022  eV     2   --> E    G_5 D_5   

 **************************************************************************

 **************************************************************************

                    xk=(   0.00000,   0.50000,   0.00000  )

     Band symmetry, C_4v (4mm)  point group:

     e(  1 -  1) =     -0.83585  eV     1   --> A_1  G_1 D_1   
     e(  2 -  2) =     15.78681  eV     1   --> B_2  G_4 D_2'  
     e(  3 -  4) =     15.97818  eV     2   --> E    G_5 D_5   
     e(  5 -  5) =     16.69427  eV     1   --> A_1  G_1 D_1   
     e(  6 -  6) =     19.63011  eV     1   --> A_1  G_1 D_1   
     e(  7 -  7) =     30.68614  eV     1   --> B_1  G_3 D_2   
     e(  8 -  8) =     30.76649  eV     1   -->   ?

 **************************************************************************

 **************************************************************************

                    xk=(   0.00000,   0.55000,   0.00000  )

     Band symmetry, C_4v (4mm)  point group:

     e(  1 -  1) =     -0.34996  eV     1   --> A_1  G_1 D_1   
     e(  2 -  2) =     15.35105  eV     1   --> B_2  G_4 D_2'  
     e(  3 -  3) =     15.46930  eV     1   --> A_1  G_1 D_1   
     e(  4 -  5) =     15.61149  eV     2   --> E    G_5 D_5   
     e(  6 -  6) =     19.29245  eV     1   --> A_1  G_1 D_1   
     e(  7 -  7) =     31.13492  eV     1   --> B_1  G_3 D_2   
     e(  8 -  8) =     31.60546  eV     1   -->   ?

 **************************************************************************

 **************************************************************************

                    xk=(   0.00000,   0.60000,   0.00000  )

     Band symmetry, C_4v (4mm)  point group:

     e(  1 -  1) =      0.17932  eV     1   --> A_1  G_1 D_1   
     e(  2 -  2) =     14.27895  eV     1   --> A_1  G_1 D_1   
     e(  3 -  3) =     14.95969  eV     1   --> B_2  G_4 D_2'  
     e(  4 -  5) =     15.28382  eV     2   --> E    G_5 D_5   
     e(  6 -  6) =     18.96387  eV     1   --> A_1  G_1 D_1   
     e(  7 -  7) =     31.61878  eV     1   --> B_1  G_3 D_2   
     e(  8 -  8) =     32.40068  eV     1   -->   ?

 **************************************************************************

 **************************************************************************

                    xk=(   0.00000,   0.65000,   0.00000  )

     Band symmetry, C_4v (4mm)  point group:

     e(  1 -  1) =      0.75189  eV     1   --> A_1  G_1 D_1   
     e(  2 -  2) =     13.12525  eV     1   --> A_1  G_1 D_1   
     e(  3 -  3) =     14.61347  eV     1   --> B_2  G_4 D_2'  
     e(  4 -  5) =     14.99524  eV     2   --> E    G_5 D_5   
     e(  6 -  6) =     18.67890  eV     1   --> A_1  G_1 D_1   
     e(  7 -  7) =     32.13344  eV     1   --> B_1  G_3 D_2   
     e(  8 -  8) =     33.15832  eV     1   -->   ?

 **************************************************************************

 **************************************************************************

                    xk=(   0.00000,   0.70000,   0.00000  )

     Band symmetry, C_4v (4mm)  point group:

     e(  1 -  1) =      1.36515  eV     1   --> A_1  G_1 D_1   
     e(  2 -  2) =     12.00726  eV     1   --> A_1  G_1 D_1   
     e(  3 -  3) =     14.31280  eV     1   --> B_2  G_4 D_2'  
     e(  4 -  5) =     14.74557  eV     2   --> E    G_5 D_5   
     e(  6 -  6) =     18.42561  eV     1   --> A_1  G_1 D_1   
     e(  7 -  7) =     32.67247  eV     1   --> B_1  G_3 D_2   
     e(  8 -  8) =     33.88043  eV     1   -->   ?

 **************************************************************************

 **************************************************************************

                    xk=(   0.00000,   0.75000,   0.00000  )

     Band symmetry, C_4v (4mm)  point group:

     e(  1 -  1) =      2.01843  eV     1   --> A_1  G_1 D_1   
     e(  2 -  2) =     10.92742  eV     1   --> A_1  G_1 D_1   
     e(  3 -  3) =     14.05798  eV     1   --> B_2  G_4 D_2'  
     e(  4 -  5) =     14.53466  eV     2   --> E    G_5 D_5   
     e(  6 -  6) =     18.20700  eV     1   --> A_1  G_1 D_1   
     e(  7 -  7) =     33.22579  eV     1   --> B_1  G_3 D_2   
     e(  8 -  8) =     34.57017  eV     1   -->   ?

 **************************************************************************

 **************************************************************************

                    xk=(   0.00000,   0.80000,   0.00000  )

     Band symmetry, C_4v (4mm)  point group:

     e(  1 -  1) =      2.70942  eV     1   --> A_1  G_1 D_1   
     e(  2 -  2) =      9.88783  eV     1   --> A_1  G_1 D_1   
     e(  3 -  3) =     13.84926  eV     1   --> B_2  G_4 D_2'  
     e(  4 -  5) =     14.36239  eV     2   --> E    G_5 D_5   
     e(  6 -  6) =     18.02526  eV     1   --> A_1  G_1 D_1   
     e(  7 -  7) =     33.77725  eV     1   --> B_1  G_3 D_2   
     e(  8 -  8) =     35.22521  eV     1   -->   ?

 **************************************************************************

 **************************************************************************

                    xk=(   0.00000,   0.85000,   0.00000  )

     Band symmetry, C_4v (4mm)  point group:

     e(  1 -  1) =      3.43559  eV     1   --> A_1  G_1 D_1   
     e(  2 -  2) =      8.88736  eV     1   --> A_1  G_1 D_1   
     e(  3 -  3) =     13.68387  eV     1   --> B_2  G_4 D_2'  
     e(  4 -  5) =     14.22765  eV     2   --> E    G_5 D_5   
     e(  6 -  6) =     17.88148  eV     1   --> A_1  G_1 D_1   
     e(  7 -  7) =     34.28754  eV     1   --> B_1  G_3 D_2   
     e(  8 -  8) =     35.82377  eV     1   -->   ?

 **************************************************************************

 **************************************************************************

                    xk=(   0.00000,   0.90000,   0.00000  )

     Band symmetry, C_4v (4mm)  point group:

     e(  1 -  1) =      4.18195  eV     1   --> A_1  G_1 D_1   
     e(  2 -  2) =      7.94758  eV     1   --> A_1  G_1 D_1   
     e(  3 -  3) =     13.56762  eV     1   --> B_2  G_4 D_2'  
     e(  4 -  5) =     14.13187  eV     2   --> E    G_5 D_5   
     e(  6 -  6) =     17.77832  eV     1   --> A_1  G_1 D_1   
     e(  7 -  7) =     34.73729  eV     1   --> B_1  G_3 D_2   
     e(  8 -  8) =     36.34964  eV     1   -->   ?

 **************************************************************************

 **************************************************************************

                    xk=(   0.00000,   0.95000,   0.00000  )

     Band symmetry, C_4v (4mm)  point group:

     e(  1 -  1) =      4.90682  eV     1   --> A_1  G_1 D_1   
     e(  2 -  2) =      7.10672  eV     1   --> A_1  G_1 D_1   
     e(  3 -  3) =     13.49784  eV     1   --> B_2  G_4 D_2'  
     e(  4 -  5) =     14.07443  eV     2   --> E    G_5 D_5   
     e(  6 -  6) =     17.71605  eV     1   --> A_1  G_1 D_1   
     e(  7 -  7) =     35.05377  eV     1   --> B_1  G_3 D_2   
     e(  8 -  8) =     36.72832  eV     1   -->   ?

 **************************************************************************

 **************************************************************************

                    xk=(   0.00000,   1.00000,   0.00000  )

     point group D_4h(4/mmm)
     there are 10 classes
     the character table:

       E     2C4   C2    2C2'  2C2'' i     2S4   s_h   2s_v  2s_d 
A_1g   1.00  1.00  1.00  1.00  1.00  1.00  1.00  1.00  1.00  1.00
A_2g   1.00  1.00  1.00 -1.00 -1.00  1.00  1.00  1.00 -1.00 -1.00
B_1g   1.00 -1.00  1.00  1.00 -1.00  1.00 -1.00  1.00  1.00 -1.00
B_2g   1.00 -1.00  1.00 -1.00  1.00  1.00 -1.00  1.00 -1.00  1.00
E_g    2.00  0.00 -2.00  0.00  0.00  2.00  0.00 -2.00  0.00  0.00
A_1u   1.00  1.00  1.00  1.00  1.00 -1.00 -1.00 -1.00 -1.00 -1.00
A_2u   1.00  1.00  1.00 -1.00 -1.00 -1.00 -1.00 -1.00  1.00  1.00
B_1u   1.00 -1.00  1.00  1.00 -1.00 -1.00  1.00 -1.00 -1.00  1.00
B_2u   1.00 -1.00  1.00 -1.00  1.00 -1.00  1.00 -1.00  1.00 -1.00
E_u    2.00  0.00 -2.00  0.00  0.00 -2.00  0.00  2.00  0.00  0.00

     the symmetry operations in each class and the name of the first element:

     E        1
                                                                 
     2C4      7    8
                                                                 
     C2       3
                                                                 
     2C2'     2    4
                                                                 
     2C2''    5    6
                                                                 
     i        9
                                                                 
     2S4     15   16
                                                                 
     s_h     11
                                                                 
     2s_v    10   12
                                                                 
     2s_d    13   14
                                                                 

     Band symmetry, D_4h(4/mmm) point group:

     e(  1 -  1) =      5.33103  eV     1   --> A_2u X_4' M_4' 
     e(  2 -  2) =      6.64386  eV     1   --> A_1g X_1  M_1  
     e(  3 -  3) =     13.47458  eV     1   --> B_2g X_3  M_3  
     e(  4 -  5) =     14.05529  eV     2   --> E_u  X_5' M_5' 
     e(  6 -  6) =     17.69523  eV     1   --> A_1g X_1  M_1  
     e(  7 -  7) =     35.16981  eV     1   --> B_1g X_2  M_2  
     e(  8 -  8) =     36.87068  eV     1   -->   ?

 **************************************************************************

 **************************************************************************

                    xk=(   0.02500,   1.00000,   0.00000  )

     point group C_2v (mm2) 
     there are  4 classes
     the character table:

       E     C2    s_v   s_v' 
A_1    1.00  1.00  1.00  1.00
A_2    1.00  1.00 -1.00 -1.00
B_1    1.00 -1.00  1.00 -1.00
B_2    1.00 -1.00 -1.00  1.00

     the symmetry operations in each class and the name of the first element:

     E        1
                                                                 
     C2       2
                                                                 
     s_v      4
                                                                 
     s_v'     3
                                                                 

     Band symmetry, C_2v (mm2)  point group:

     e(  1 -  1) =      5.33623  eV     1   --> B_2  D_4  S_4  
     e(  2 -  2) =      6.64952  eV     1   --> A_1  D_1  S_1  
     e(  3 -  3) =     13.25438  eV     1   --> B_1  D_3  S_3  
     e(  4 -  4) =     14.01206  eV     1   --> A_1  D_1  S_1  
     e(  5 -  5) =     14.28649  eV     1   --> B_1  D_3  S_3  
     e(  6 -  6) =     17.74659  eV     1   --> A_1  D_1  S_1  
     e(  7 -  7) =     35.12267  eV     1   --> A_1  D_1  S_1  
     e(  8 -  8) =     36.74875  eV     1   --> B_2  D_4  S_4  

 **************************************************************************

 **************************************************************************

                    xk=(   0.05000,   1.00000,   0.00000  )

     Band symmetry, C_2v (mm2)  point group:

     e(  1 -  1) =      5.35207  eV     1   --> B_2  D_4  S_4  
     e(  2 -  2) =      6.66924  eV     1   --> A_1  D_1  S_1  
     e(  3 -  3) =     12.88796  eV     1   --> B_1  D_3  S_3  
     e(  4 -  4) =     13.89110  eV     1   --> A_1  D_1  S_1  
     e(  5 -  5) =     14.68872  eV     1   --> B_1  D_3  S_3  
     e(  6 -  6) =     17.89508  eV     1   --> A_1  D_1  S_1  
     e(  7 -  7) =     34.99428  eV     1   --> A_1  D_1  S_1  
     e(  8 -  8) =     36.41747  eV     1   --> B_2  D_4  S_4  

 **************************************************************************

 **************************************************************************

                    xk=(   0.07500,   1.00000,   0.00000  )

     Band symmetry, C_2v (mm2)  point group:

     e(  1 -  1) =      5.37805  eV     1   --> B_2  D_4  S_4  
     e(  2 -  2) =      6.69743  eV     1   --> A_1  D_1  S_1  
     e(  3 -  3) =     12.50411  eV     1   --> B_1  D_3  S_3  
     e(  4 -  4) =     13.70431  eV     1   --> A_1  D_1  S_1  
     e(  5 -  5) =     15.12747  eV     1   --> B_1  D_3  S_3  
     e(  6 -  6) =     18.12218  eV     1   --> A_1  D_1  S_1  
     e(  7 -  7) =     34.77067  eV     1   --> A_1  D_1  S_1  
     e(  8 -  8) =     35.93241  eV     1   --> B_2  D_4  S_4  

 **************************************************************************

 **************************************************************************

                    xk=(   0.10000,   1.00000,   0.00000  )

     Band symmetry, C_2v (mm2)  point group:

     e(  1 -  1) =      5.41467  eV     1   --> B_2  D_4  S_4  
     e(  2 -  2) =      6.73956  eV     1   --> A_1  D_1  S_1  
     e(  3 -  3) =     12.12911  eV     1   --> B_1  D_3  S_3  
     e(  4 -  4) =     13.47247  eV     1   --> A_1  D_1  S_1  
     e(  5 -  5) =     15.58470  eV     1   --> B_1  D_3  S_3  
     e(  6 -  6) =     18.41133  eV     1   --> A_1  D_1  S_1  
     e(  7 -  7) =     34.47762  eV     1   --> A_1  D_1  S_1  
     e(  8 -  8) =     35.35506  eV     1   --> B_2  D_4  S_4  

 **************************************************************************

 **************************************************************************

                    xk=(   0.12500,   1.00000,   0.00000  )

     Band symmetry, C_2v (mm2)  point group:

     e(  1 -  1) =      5.46021  eV     1   --> B_2  D_4  S_4  
     e(  2 -  2) =      6.78865  eV     1   --> A_1  D_1  S_1  
     e(  3 -  3) =     11.75645  eV     1   --> B_1  D_3  S_3  
     e(  4 -  4) =     13.20840  eV     1   --> A_1  D_1  S_1  
     e(  5 -  5) =     16.05159  eV     1   --> B_1  D_3  S_3  
     e(  6 -  6) =     18.74551  eV     1   --> A_1  D_1  S_1  
     e(  7 -  7) =     34.11577  eV     1   --> A_1  D_1  S_1  
     e(  8 -  8) =     34.71544  eV     1   --> B_2  D_4  S_4  

 **************************************************************************

 **************************************************************************

                    xk=(   0.15000,   1.00000,   0.00000  )

     Band symmetry, C_2v (mm2)  point group:

     e(  1 -  1) =      5.51733  eV     1   --> B_2  D_4  S_4  
     e(  2 -  2) =      6.85020  eV     1   --> A_1  D_1  S_1  
     e(  3 -  3) =     11.39323  eV     1   --> B_1  D_3  S_3  
     e(  4 -  4) =     12.92852  eV     1   --> A_1  D_1  S_1  
     e(  5 -  5) =     16.53521  eV     1   --> B_1  D_3  S_3  
     e(  6 -  6) =     19.11428  eV     1   --> A_1  D_1  S_1  
     e(  7 -  7) =     33.70430  eV     1   --> A_1  D_1  S_1  
     e(  8 -  8) =     34.04793  eV     1   --> B_2  D_4  S_4  

 **************************************************************************

 **************************************************************************

                    xk=(   0.17500,   1.00000,   0.00000  )

     Band symmetry, C_2v (mm2)  point group:

     e(  1 -  1) =      5.58486  eV     1   --> B_2  D_4  S_4  
     e(  2 -  2) =      6.92263  eV     1   --> A_1  D_1  S_1  
     e(  3 -  3) =     11.04003  eV     1   --> B_1  D_3  S_3  
     e(  4 -  4) =     12.63850  eV     1   --> A_1  D_1  S_1  
     e(  5 -  5) =     17.03068  eV     1   --> B_1  D_3  S_3  
     e(  6 -  6) =     19.50937  eV     1   --> A_1  D_1  S_1  
     e(  7 -  7) =     33.25325  eV     1   --> A_1  D_1  S_1  
     e(  8 -  8) =     33.36053  eV     1   --> B_2  D_4  S_4  

 **************************************************************************

 **************************************************************************

                    xk=(   0.20000,   1.00000,   0.00000  )

     Band symmetry, C_2v (mm2)  point group:

     e(  1 -  1) =      5.66283  eV     1   --> B_2  D_4  S_4  
     e(  2 -  2) =      7.00575  eV     1   --> A_1  D_1  S_1  
     e(  3 -  3) =     10.69719  eV     1   --> B_1  D_3  S_3  
     e(  4 -  4) =     12.34399  eV     1   --> A_1  D_1  S_1  
     e(  5 -  5) =     17.53764  eV     1   --> B_1  D_3  S_3  
     e(  6 -  6) =     19.92507  eV     1   --> A_1  D_1  S_1  
     e(  7 -  7) =     32.66190  eV     1   --> B_2  D_4  S_4  
     e(  8 -  8) =     32.77185  eV     1   --> A_1  D_1  S_1  

 **************************************************************************

 **************************************************************************

                    xk=(   0.22500,   1.00000,   0.00000  )

     Band symmetry, C_2v (mm2)  point group:

     e(  1 -  1) =      5.75124  eV     1   --> B_2  D_4  S_4  
     e(  2 -  2) =      7.09931  eV     1   --> A_1  D_1  S_1  
     e(  3 -  3) =     10.36488  eV     1   --> B_1  D_3  S_3  
     e(  4 -  4) =     12.04903  eV     1   --> A_1  D_1  S_1  
     e(  5 -  5) =     18.05586  eV     1   --> B_1  D_3  S_3  
     e(  6 -  6) =     20.35727  eV     1   --> A_1  D_1  S_1  
     e(  7 -  7) =     31.95771  eV     1   --> B_2  D_4  S_4  
     e(  8 -  8) =     32.26789  eV     1   --> A_1  D_1  S_1  

 **************************************************************************

 **************************************************************************

                    xk=(   0.25000,   1.00000,   0.00000  )

     Band symmetry, C_2v (mm2)  point group:

     e(  1 -  1) =      5.85010  eV     1   --> B_2  D_4  S_4  
     e(  2 -  2) =      7.20298  eV     1   --> A_1  D_1  S_1  
     e(  3 -  3) =     10.04320  eV     1   --> B_1  D_3  S_3  
     e(  4 -  4) =     11.75659  eV     1   --> A_1  D_1  S_1  
     e(  5 -  5) =     18.58517  eV     1   --> B_1  D_3  S_3  
     e(  6 -  6) =     20.80282  eV     1   --> A_1  D_1  S_1  
     e(  7 -  7) =     31.25182  eV     1   --> B_2  D_4  S_4  
     e(  8 -  8) =     31.74786  eV     1   --> A_1  D_1  S_1  

 **************************************************************************

 **************************************************************************

                    xk=(   0.27500,   1.00000,   0.00000  )

     Band symmetry, C_2v (mm2)  point group:

     e(  1 -  1) =      5.95942  eV     1   --> B_2  D_4  S_4  
     e(  2 -  2) =      7.31630  eV     1   --> A_1  D_1  S_1  
     e(  3 -  3) =      9.73219  eV     1   --> B_1  D_3  S_3  
     e(  4 -  4) =     11.46904  eV     1   --> A_1  D_1  S_1  
     e(  5 -  5) =     19.12546  eV     1   --> B_1  D_3  S_3  
     e(  6 -  6) =     21.25918  eV     1   --> A_1  D_1  S_1  
     e(  7 -  7) =     30.54698  eV     1   --> B_2  D_4  S_4  
     e(  8 -  8) =     31.21724  eV     1   --> A_1  D_1  S_1  

 **************************************************************************

 **************************************************************************

                    xk=(   0.30000,   1.00000,   0.00000  )

     Band symmetry, C_2v (mm2)  point group:

     e(  1 -  1) =      6.07922  eV     1   --> B_2  D_4  S_4  
     e(  2 -  2) =      7.43864  eV     1   --> A_1  D_1  S_1  
     e(  3 -  3) =      9.43190  eV     1   --> B_1  D_3  S_3  
     e(  4 -  4) =     11.18838  eV     1   --> A_1  D_1  S_1  
     e(  5 -  5) =     19.67661  eV     1   --> B_1  D_3  S_3  
     e(  6 -  6) =     21.72401  eV     1   --> A_1  D_1  S_1  
     e(  7 -  7) =     29.84519  eV     1   --> B_2  D_4  S_4  
     e(  8 -  8) =     30.68078  eV     1   --> A_1  D_1  S_1  

 **************************************************************************

 **************************************************************************

                    xk=(   0.32500,   1.00000,   0.00000  )

     Band symmetry, C_2v (mm2)  point group:

     e(  1 -  1) =      6.20950  eV     1   --> B_2  D_4  S_4  
     e(  2 -  2) =      7.56911  eV     1   --> A_1  D_1  S_1  
     e(  3 -  3) =      9.14232  eV     1   --> B_1  D_3  S_3  
     e(  4 -  4) =     10.91653  eV     1   --> A_1  D_1  S_1  
     e(  5 -  5) =     20.23853  eV     1   --> B_1  D_3  S_3  
     e(  6 -  6) =     22.19489  eV     1   --> A_1  D_1  S_1  
     e(  7 -  7) =     29.14795  eV     1   --> B_2  D_4  S_4  
     e(  8 -  8) =     30.14293  eV     1   --> A_1  D_1  S_1  

 **************************************************************************

 **************************************************************************

                    xk=(   0.35000,   1.00000,   0.00000  )

     Band symmetry, C_2v (mm2)  point group:

     e(  1 -  1) =      6.35030  eV     1   --> B_2  D_4  S_4  
     e(  2 -  2) =      7.70634  eV     1   --> A_1  D_1  S_1  
     e(  3 -  3) =      8.86347  eV     1   --> B_1  D_3  S_3  
     e(  4 -  4) =     10.65562  eV     1   --> A_1  D_1  S_1  
     e(  5 -  5) =     20.81110  eV     1   --> B_1  D_3  S_3  
     e(  6 -  6) =     22.66883  eV     1   --> A_1  D_1  S_1  
     e(  7 -  7) =     28.45643  eV     1   --> B_2  D_4  S_4  
     e(  8 -  8) =     29.60825  eV     1   --> A_1  D_1  S_1  

 **************************************************************************

 **************************************************************************

                    xk=(   0.37500,   1.00000,   0.00000  )

     Band symmetry, C_2v (mm2)  point group:

     e(  1 -  1) =      6.50162  eV     1   --> B_2  D_4  S_4  
     e(  2 -  2) =      7.84821  eV     1   --> A_1  D_1  S_1  
     e(  3 -  3) =      8.59533  eV     1   --> B_1  D_3  S_3  
     e(  4 -  4) =     10.40834  eV     1   --> A_1  D_1  S_1  
     e(  5 -  5) =     21.39421  eV     1   --> B_1  D_3  S_3  
     e(  6 -  6) =     23.14163  eV     1   --> A_1  D_1  S_1  
     e(  7 -  7) =     27.77152  eV     1   --> B_2  D_4  S_4  
     e(  8 -  8) =     29.08224  eV     1   --> A_1  D_1  S_1  

 **************************************************************************

 **************************************************************************

                    xk=(   0.40000,   1.00000,   0.00000  )

     Band symmetry, C_2v (mm2)  point group:

     e(  1 -  1) =      6.66348  eV     1   --> B_2  D_4  S_4  
     e(  2 -  2) =      7.99122  eV     1   --> A_1  D_1  S_1  
     e(  3 -  3) =      8.33791  eV     1   --> B_1  D_3  S_3  
     e(  4 -  4) =     10.17863  eV     1   --> A_1  D_1  S_1  
     e(  5 -  5) =     21.98774  eV     1   --> B_1  D_3  S_3  
     e(  6 -  6) =     23.60646  eV     1   --> A_1  D_1  S_1  
     e(  7 -  7) =     27.09397  eV     1   --> B_2  D_4  S_4  
     e(  8 -  8) =     28.57271  eV     1   --> A_1  D_1  S_1  

 **************************************************************************

 **************************************************************************

                    xk=(   0.42500,   1.00000,   0.00000  )

     Band symmetry, C_2v (mm2)  point group:

     e(  1 -  1) =      6.83591  eV     1   --> B_2  D_4  S_4  
     e(  2 -  2) =      8.09118  eV     1   --> B_1  D_3  S_3  
     e(  3 -  3) =      8.12932  eV     1   --> A_1  D_1  S_1  
     e(  4 -  4) =      9.97285  eV     1   --> A_1  D_1  S_1  
     e(  5 -  5) =     22.59154  eV     1   --> B_1  D_3  S_3  
     e(  6 -  6) =     24.05080  eV     1   --> A_1  D_1  S_1  
     e(  7 -  7) =     26.42437  eV     1   --> B_2  D_4  S_4  
     e(  8 -  8) =     28.09294  eV     1   --> A_1  D_1  S_1  

 **************************************************************************

 **************************************************************************

                    xk=(   0.45000,   1.00000,   0.00000  )

     Band symmetry, C_2v (mm2)  point group:

     e(  1 -  1) =      7.01891  eV     1   --> B_2  D_4  S_4  
     e(  2 -  2) =      7.85513  eV     1   --> B_1  D_3  S_3  
     e(  3 -  3) =      8.25190  eV     1   --> A_1  D_1  S_1  
     e(  4 -  4) =      9.80184  eV     1   --> A_1  D_1  S_1  
     e(  5 -  5) =     23.20546  eV     1   --> B_1  D_3  S_3  
     e(  6 -  6) =     24.44947  eV     1   --> A_1  D_1  S_1  
     e(  7 -  7) =     25.76320  eV     1   --> B_2  D_4  S_4  
     e(  8 -  8) =     27.66869  eV     1   --> A_1  D_1  S_1  

 **************************************************************************

 **************************************************************************

                    xk=(   0.47500,   1.00000,   0.00000  )

     Band symmetry, C_2v (mm2)  point group:

     e(  1 -  1) =      7.21250  eV     1   --> B_2  D_4  S_4  
     e(  2 -  2) =      7.62975  eV     1   --> B_1  D_3  S_3  
     e(  3 -  3) =      8.34146  eV     1   --> A_1  D_1  S_1  
     e(  4 -  4) =      9.68326  eV     1   --> A_1  D_1  S_1  
     e(  5 -  5) =     23.82932  eV     1   --> B_1  D_3  S_3  
     e(  6 -  6) =     24.75060  eV     1   --> A_1  D_1  S_1  
     e(  7 -  7) =     25.11087  eV     1   --> B_2  D_4  S_4  
     e(  8 -  8) =     27.35220  eV     1   --> A_1  D_1  S_1  

 **************************************************************************

 **************************************************************************

                    xk=(   0.50000,   1.00000,   0.00000  )

     point group D_2d (-42m)
     there are  5 classes
     the character table:

       E     2S4   C2    2C2'  2s_d 
A_1    1.00  1.00  1.00  1.00  1.00
A_2    1.00  1.00  1.00 -1.00 -1.00
B_1    1.00 -1.00  1.00  1.00 -1.00
B_2    1.00 -1.00  1.00 -1.00  1.00
E      2.00  0.00 -2.00  0.00  0.00

     the symmetry operations in each class and the name of the first element:

     E        1
                                                                 
     2S4      7    8
                                                                 
     C2       2
                                                                 
     2C2'     3    4
                                                                 
     2s_d     5    6
                                                                 

     Band symmetry, D_2d (-42m) point group:

     e(  1 -  2) =      7.41501  eV     2   --> E    X_5  W_3  
     e(  3 -  3) =      8.37367  eV     1   --> B_2  X_3  W_2  
     e(  4 -  4) =      9.63485  eV     1   --> A_1  X_1  W_1  
     e(  5 -  6) =     24.46248  eV     2   --> E    X_5  W_3  
     e(  7 -  7) =     24.86711  eV     1   --> B_2  X_3  W_2  
     e(  8 -  8) =     27.22654  eV     1   --> A_1  X_1  W_1  

 **************************************************************************

 **************************************************************************

                    xk=(   0.51250,   0.98750,   0.00000  )

     point group C_s (m)    
     there are  2 classes
     the character table:

       E     s    
A'     1.00  1.00
A''    1.00 -1.00

     the symmetry operations in each class and the name of the first element:

     E        1
                                                                 
     s        2
                                                                 

     Band symmetry, C_s (m)     point group:

     e(  1 -  1) =      7.31293  eV     1   --> A''            
     e(  2 -  2) =      7.48743  eV     1   --> A'             
     e(  3 -  3) =      8.38827  eV     1   --> A'             
     e(  4 -  4) =      9.66181  eV     1   --> A'             
     e(  5 -  5) =     24.10948  eV     1   --> A'             
     e(  6 -  6) =     24.78408  eV     1   --> A''            
     e(  7 -  7) =     24.86943  eV     1   --> A'             
     e(  8 -  8) =     27.26502  eV     1   --> A'             

 **************************************************************************

 **************************************************************************

                    xk=(   0.52500,   0.97500,   0.00000  )

     Band symmetry, C_s (m)     point group:

     e(  1 -  1) =      7.21774  eV     1   --> A''            
     e(  2 -  2) =      7.50359  eV     1   --> A'             
     e(  3 -  3) =      8.41545  eV     1   --> A'             
     e(  4 -  4) =      9.75056  eV     1   --> A'             
     e(  5 -  5) =     23.71660  eV     1   --> A'             
     e(  6 -  6) =     24.85793  eV     1   --> A'             
     e(  7 -  7) =     25.11592  eV     1   --> A''            
     e(  8 -  8) =     27.36788  eV     1   --> A'             

 **************************************************************************

 **************************************************************************

                    xk=(   0.53750,   0.96250,   0.00000  )

     Band symmetry, C_s (m)     point group:

     e(  1 -  1) =      7.12616  eV     1   --> A''            
     e(  2 -  2) =      7.48183  eV     1   --> A'             
     e(  3 -  3) =      8.43124  eV     1   --> A'             
     e(  4 -  4) =      9.89884  eV     1   --> A'             
     e(  5 -  5) =     23.30200  eV     1   --> A'             
     e(  6 -  6) =     24.82950  eV     1   --> A'             
     e(  7 -  7) =     25.44722  eV     1   --> A''            
     e(  8 -  8) =     27.51682  eV     1   --> A'             

 **************************************************************************

 **************************************************************************

                    xk=(   0.55000,   0.95000,   0.00000  )

     Band symmetry, C_s (m)     point group:

     e(  1 -  1) =      7.03985  eV     1   --> A''            
     e(  2 -  2) =      7.43926  eV     1   --> A'             
     e(  3 -  3) =      8.42680  eV     1   --> A'             
     e(  4 -  4) =     10.10321  eV     1   --> A'             
     e(  5 -  5) =     22.87415  eV     1   --> A'             
     e(  6 -  6) =     24.79008  eV     1   --> A'             
     e(  7 -  7) =     25.78321  eV     1   --> A''            
     e(  8 -  8) =     27.69978  eV     1   --> A'             

 **************************************************************************

 **************************************************************************

                    xk=(   0.56250,   0.93750,   0.00000  )

     Band symmetry, C_s (m)     point group:

     e(  1 -  1) =      6.95880  eV     1   --> A''            
     e(  2 -  2) =      7.38664  eV     1   --> A'             
     e(  3 -  3) =      8.40409  eV     1   --> A'             
     e(  4 -  4) =     10.35090  eV     1   --> A'             
     e(  5 -  5) =     22.43833  eV     1   --> A'             
     e(  6 -  6) =     24.74422  eV     1   --> A'             
     e(  7 -  7) =     26.12379  eV     1   --> A''            
     e(  8 -  8) =     27.90662  eV     1   --> A'             

 **************************************************************************

 **************************************************************************

                    xk=(   0.57500,   0.92500,   0.00000  )

     Band symmetry, C_s (m)     point group:

     e(  1 -  1) =      6.88300  eV     1   --> A''            
     e(  2 -  2) =      7.33005  eV     1   --> A'             
     e(  3 -  3) =      8.36899  eV     1   --> A'             
     e(  4 -  4) =     10.62989  eV     1   --> A'             
     e(  5 -  5) =     21.99806  eV     1   --> A'             
     e(  6 -  6) =     24.69528  eV     1   --> A'             
     e(  7 -  7) =     26.46887  eV     1   --> A''            
     e(  8 -  8) =     28.12998  eV     1   --> A'             

 **************************************************************************

 **************************************************************************

                    xk=(   0.58750,   0.91250,   0.00000  )

     Band symmetry, C_s (m)     point group:

     e(  1 -  1) =      6.81245  eV     1   --> A''            
     e(  2 -  2) =      7.27290  eV     1   --> A'             
     e(  3 -  3) =      8.32684  eV     1   --> A'             
     e(  4 -  4) =     10.93129  eV     1   --> A'             
     e(  5 -  5) =     21.55581  eV     1   --> A'             
     e(  6 -  6) =     24.64560  eV     1   --> A'             
     e(  7 -  7) =     26.81830  eV     1   --> A''            
     e(  8 -  8) =     28.36446  eV     1   --> A'             

 **************************************************************************

 **************************************************************************

                    xk=(   0.60000,   0.90000,   0.00000  )

     Band symmetry, C_s (m)     point group:

     e(  1 -  1) =      6.74715  eV     1   --> A''            
     e(  2 -  2) =      7.21720  eV     1   --> A'             
     e(  3 -  3) =      8.28149  eV     1   --> A'             
     e(  4 -  4) =     11.24912  eV     1   --> A'             
     e(  5 -  5) =     21.11337  eV     1   --> A'             
     e(  6 -  6) =     24.59679  eV     1   --> A'             
     e(  7 -  7) =     27.17195  eV     1   --> A''            
     e(  8 -  8) =     28.60588  eV     1   --> A'             

 **************************************************************************

 **************************************************************************

                    xk=(   0.61250,   0.88750,   0.00000  )

     Band symmetry, C_s (m)     point group:

     e(  1 -  1) =      6.68709  eV     1   --> A''            
     e(  2 -  2) =      7.16416  eV     1   --> A'             
     e(  3 -  3) =      8.23556  eV     1   --> A'             
     e(  4 -  4) =     11.57935  eV     1   --> A'             
     e(  5 -  5) =     20.67212  eV     1   --> A'             
     e(  6 -  6) =     24.54993  eV     1   --> A'             
     e(  7 -  7) =     27.52963  eV     1   --> A''            
     e(  8 -  8) =     28.85079  eV     1   --> A'             

 **************************************************************************

 **************************************************************************

                    xk=(   0.62500,   0.87500,   0.00000  )

     Band symmetry, C_s (m)     point group:

     e(  1 -  1) =      6.63227  eV     1   --> A''            
     e(  2 -  2) =      7.11455  eV     1   --> A'             
     e(  3 -  3) =      8.19079  eV     1   --> A'             
     e(  4 -  4) =     11.91919  eV     1   --> A'             
     e(  5 -  5) =     20.23322  eV     1   --> A'             
     e(  6 -  6) =     24.50580  eV     1   --> A'             
     e(  7 -  7) =     27.89113  eV     1   --> A''            
     e(  8 -  8) =     29.09607  eV     1   --> A'             

 **************************************************************************

 **************************************************************************

                    xk=(   0.63750,   0.86250,   0.00000  )

     Band symmetry, C_s (m)     point group:

     e(  1 -  1) =      6.58268  eV     1   --> A''            
     e(  2 -  2) =      7.06886  eV     1   --> A'             
     e(  3 -  3) =      8.14836  eV     1   --> A'             
     e(  4 -  4) =     12.26655  eV     1   --> A'             
     e(  5 -  5) =     19.79771  eV     1   --> A'             
     e(  6 -  6) =     24.46493  eV     1   --> A'             
     e(  7 -  7) =     28.25619  eV     1   --> A''            
     e(  8 -  8) =     29.33865  eV     1   --> A'             

 **************************************************************************

 **************************************************************************

                    xk=(   0.65000,   0.85000,   0.00000  )

     Band symmetry, C_s (m)     point group:

     e(  1 -  1) =      6.53821  eV     1   --> A''            
     e(  2 -  2) =      7.02683  eV     1   --> A'             
     e(  3 -  3) =      8.10621  eV     1   --> A'             
     e(  4 -  4) =     12.61895  eV     1   --> A'             
     e(  5 -  5) =     19.36665  eV     1   --> A'             
     e(  6 -  6) =     24.42724  eV     1   --> A'             
     e(  7 -  7) =     28.62405  eV     1   --> A''            
     e(  8 -  8) =     29.57518  eV     1   --> A'             

 **************************************************************************

 **************************************************************************

                    xk=(   0.66250,   0.83750,   0.00000  )

     Band symmetry, C_s (m)     point group:

     e(  1 -  1) =      6.49907  eV     1   --> A''            
     e(  2 -  2) =      6.98992  eV     1   --> A'             
     e(  3 -  3) =      8.07063  eV     1   --> A'             
     e(  4 -  4) =     12.97604  eV     1   --> A'             
     e(  5 -  5) =     18.94131  eV     1   --> A'             
     e(  6 -  6) =     24.39393  eV     1   --> A'             
     e(  7 -  7) =     28.99505  eV     1   --> A''            
     e(  8 -  8) =     29.80230  eV     1   --> A'             

 **************************************************************************

 **************************************************************************

                    xk=(   0.67500,   0.82500,   0.00000  )

     Band symmetry, C_s (m)     point group:

     e(  1 -  1) =      6.46517  eV     1   --> A''            
     e(  2 -  2) =      6.95769  eV     1   --> A'             
     e(  3 -  3) =      8.03920  eV     1   --> A'             
     e(  4 -  4) =     13.33521  eV     1   --> A'             
     e(  5 -  5) =     18.52340  eV     1   --> A'             
     e(  6 -  6) =     24.36476  eV     1   --> A'             
     e(  7 -  7) =     29.36819  eV     1   --> A''            
     e(  8 -  8) =     30.01579  eV     1   --> A'             

 **************************************************************************

 **************************************************************************

                    xk=(   0.68750,   0.81250,   0.00000  )

     Band symmetry, C_s (m)     point group:

     e(  1 -  1) =      6.43718  eV     1   --> A''            
     e(  2 -  2) =      6.93041  eV     1   --> A'             
     e(  3 -  3) =      8.01471  eV     1   --> A'             
     e(  4 -  4) =     13.69476  eV     1   --> A'             
     e(  5 -  5) =     18.11772  eV     1   --> A'             
     e(  6 -  6) =     24.34185  eV     1   --> A'             
     e(  7 -  7) =     29.74404  eV     1   --> A''            
     e(  8 -  8) =     30.22105  eV     1   --> A'             

 **************************************************************************

 **************************************************************************

                    xk=(   0.70000,   0.80000,   0.00000  )

     Band symmetry, C_s (m)     point group:

     e(  1 -  1) =      6.41368  eV     1   --> A''            
     e(  2 -  2) =      6.90786  eV     1   --> A'             
     e(  3 -  3) =      7.99240  eV     1   --> A'             
     e(  4 -  4) =     14.04784  eV     1   --> A'             
     e(  5 -  5) =     17.72404  eV     1   --> A'             
     e(  6 -  6) =     24.32141  eV     1   --> A'             
     e(  7 -  7) =     30.11806  eV     1   --> A''            
     e(  8 -  8) =     30.39212  eV     1   --> A'             

 **************************************************************************

 **************************************************************************

                    xk=(   0.71250,   0.78750,   0.00000  )

     Band symmetry, C_s (m)     point group:

     e(  1 -  1) =      6.39540  eV     1   --> A''            
     e(  2 -  2) =      6.89026  eV     1   --> A'             
     e(  3 -  3) =      7.97491  eV     1   --> A'             
     e(  4 -  4) =     14.38705  eV     1   --> A'             
     e(  5 -  5) =     17.35333  eV     1   --> A'             
     e(  6 -  6) =     24.30544  eV     1   --> A'             
     e(  7 -  7) =     30.48847  eV     1   --> A''            
     e(  8 -  8) =     30.53378  eV     1   --> A'             

 **************************************************************************

 **************************************************************************

                    xk=(   0.72500,   0.77500,   0.00000  )

     Band symmetry, C_s (m)     point group:

     e(  1 -  1) =      6.38235  eV     1   --> A''            
     e(  2 -  2) =      6.87766  eV     1   --> A'             
     e(  3 -  3) =      7.96234  eV     1   --> A'             
     e(  4 -  4) =     14.69442  eV     1   --> A'             
     e(  5 -  5) =     17.02350  eV     1   --> A'             
     e(  6 -  6) =     24.29399  eV     1   --> A'             
     e(  7 -  7) =     30.64028  eV     1   --> A'             
     e(  8 -  8) =     30.84725  eV     1   --> A''            

 **************************************************************************

 **************************************************************************

                    xk=(   0.73750,   0.76250,   0.00000  )

     Band symmetry, C_s (m)     point group:

     e(  1 -  1) =      6.37452  eV     1   --> A''            
     e(  2 -  2) =      6.87009  eV     1   --> A'             
     e(  3 -  3) =      7.95477  eV     1   --> A'             
     e(  4 -  4) =     14.93058  eV     1   --> A'             
     e(  5 -  5) =     16.77388  eV     1   --> A'             
     e(  6 -  6) =     24.28710  eV     1   --> A'             
     e(  7 -  7) =     30.70656  eV     1   --> A'             
     e(  8 -  8) =     31.16681  eV     1   --> A''            

 **************************************************************************

 **************************************************************************

                    xk=(   0.75000,   0.75000,   0.00000  )

     point group C_2v (mm2) 
     there are  4 classes
     the character table:

       E     C2    s_v   s_v' 
A_1    1.00  1.00  1.00  1.00
A_2    1.00  1.00 -1.00 -1.00
B_1    1.00 -1.00  1.00 -1.00
B_2    1.00 -1.00 -1.00  1.00

     the symmetry operations in each class and the name of the first element:

     E        1
                                                                 
     C2       2
                                                                 
     s_v      3
                                                                 
     s_v'     4
                                                                 

     Band symmetry, C_2v (mm2)  point group:

     e(  1 -  1) =      6.37191  eV     1   --> B_2  D_4  S_4  
     e(  2 -  2) =      6.86757  eV     1   --> A_1  D_1  S_1  
     e(  3 -  3) =      7.95225  eV     1   --> A_1  D_1  S_1  
     e(  4 -  4) =     15.02510  eV     1   --> B_1  D_3  S_3  
     e(  5 -  5) =     16.67487  eV     1   --> A_1  D_1  S_1  
     e(  6 -  6) =     24.28480  eV     1   --> A_1  D_1  S_1  
     e(  7 -  7) =     30.72907  eV     1   --> B_1  D_3  S_3  
     e(  8 -  8) =     31.32832  eV     1   --> A_2  D_2  S_2  

 **************************************************************************

 **************************************************************************

                    xk=(   0.71250,   0.71250,   0.00000  )

     Band symmetry, C_2v (mm2)  point group:

     e(  1 -  1) =      5.99389  eV     1   --> A_1  D_1  S_1  
     e(  2 -  2) =      6.70872  eV     1   --> B_2  D_4  S_4  
     e(  3 -  3) =      8.25111  eV     1   --> A_1  D_1  S_1  
     e(  4 -  4) =     15.33863  eV     1   --> B_1  D_3  S_3  
     e(  5 -  5) =     17.05985  eV     1   --> A_1  D_1  S_1  
     e(  6 -  6) =     25.68520  eV     1   --> A_1  D_1  S_1  
     e(  7 -  7) =     29.94534  eV     1   --> B_1  D_3  S_3  
     e(  8 -  8) =     30.37944  eV     1   --> A_2  D_2  S_2  

 **************************************************************************

 **************************************************************************

                    xk=(   0.67500,   0.67500,   0.00000  )

     Band symmetry, C_2v (mm2)  point group:

     e(  1 -  1) =      5.10779  eV     1   --> A_1  D_1  S_1  
     e(  2 -  2) =      7.09310  eV     1   --> B_2  D_4  S_4  
     e(  3 -  3) =      8.64703  eV     1   --> A_1  D_1  S_1  
     e(  4 -  4) =     15.69671  eV     1   --> B_1  D_3  S_3  
     e(  5 -  5) =     17.48248  eV     1   --> A_1  D_1  S_1  
     e(  6 -  6) =     27.07221  eV     1   --> A_1  D_1  S_1  
     e(  7 -  7) =     29.19640  eV     1   --> B_1  D_3  S_3  
     e(  8 -  8) =     29.46680  eV     1   --> A_2  D_2  S_2  

 **************************************************************************

 **************************************************************************

                    xk=(   0.63750,   0.63750,   0.00000  )

     Band symmetry, C_2v (mm2)  point group:

     e(  1 -  1) =      4.25145  eV     1   --> A_1  D_1  S_1  
     e(  2 -  2) =      7.52526  eV     1   --> B_2  D_4  S_4  
     e(  3 -  3) =      9.10064  eV     1   --> A_1  D_1  S_1  
     e(  4 -  4) =     16.09953  eV     1   --> B_1  D_3  S_3  
     e(  5 -  5) =     17.94589  eV     1   --> A_1  D_1  S_1  
     e(  6 -  6) =     28.38411  eV     1   --> A_1  D_1  S_1  
     e(  7 -  7) =     28.48611  eV     1   --> B_1  D_3  S_3  
     e(  8 -  8) =     28.59456  eV     1   --> A_2  D_2  S_2  

 **************************************************************************

 **************************************************************************

                    xk=(   0.60000,   0.60000,   0.00000  )

     Band symmetry, C_2v (mm2)  point group:

     e(  1 -  1) =      3.43336  eV     1   --> A_1  D_1  S_1  
     e(  2 -  2) =      8.00539  eV     1   --> B_2  D_4  S_4  
     e(  3 -  3) =      9.60379  eV     1   --> A_1  D_1  S_1  
     e(  4 -  4) =     16.54726  eV     1   --> B_1  D_3  S_3  
     e(  5 -  5) =     18.44988  eV     1   --> A_1  D_1  S_1  
     e(  6 -  6) =     27.76559  eV     1   --> A_2  D_2  S_2  
     e(  7 -  7) =     27.81686  eV     1   --> B_1  D_3  S_3  
     e(  8 -  8) =     29.03879  eV     1   --> B_2  D_4  S_4  

 **************************************************************************

 **************************************************************************

                    xk=(   0.56250,   0.56250,   0.00000  )

     Band symmetry, C_2v (mm2)  point group:

     e(  1 -  1) =      2.65541  eV     1   --> A_1  D_1  S_1  
     e(  2 -  2) =      8.53369  eV     1   --> B_2  D_4  S_4  
     e(  3 -  3) =     10.15282  eV     1   --> A_1  D_1  S_1  
     e(  4 -  4) =     17.03699  eV     1   --> B_1  D_3  S_3  
     e(  5 -  5) =     18.99353  eV     1   --> A_1  D_1  S_1  
     e(  6 -  6) =     26.98195  eV     1   --> A_2  D_2  S_2  
     e(  7 -  7) =     27.18904  eV     1   --> B_1  D_3  S_3  
     e(  8 -  8) =     28.37148  eV     1   --> B_2  D_4  S_4  

 **************************************************************************

 **************************************************************************

                    xk=(   0.52500,   0.52500,   0.00000  )

     Band symmetry, C_2v (mm2)  point group:

     e(  1 -  1) =      1.92270  eV     1   --> A_1  D_1  S_1  
     e(  2 -  2) =      9.11035  eV     1   --> B_2  D_4  S_4  
     e(  3 -  3) =     10.74537  eV     1   --> A_1  D_1  S_1  
     e(  4 -  4) =     17.57430  eV     1   --> B_1  D_3  S_3  
     e(  5 -  5) =     19.57554  eV     1   --> A_1  D_1  S_1  
     e(  6 -  6) =     26.24514  eV     1   --> A_2  D_2  S_2  
     e(  7 -  7) =     26.60583  eV     1   --> B_1  D_3  S_3  
     e(  8 -  8) =     27.74627  eV     1   --> B_2  D_4  S_4  

 **************************************************************************

 **************************************************************************

                    xk=(   0.48750,   0.48750,   0.00000  )

     Band symmetry, C_2v (mm2)  point group:

     e(  1 -  1) =      1.23535  eV     1   --> A_1  D_1  S_1  
     e(  2 -  2) =      9.73554  eV     1   --> B_2  D_4  S_4  
     e(  3 -  3) =     11.38548  eV     1   --> A_1  D_1  S_1  
     e(  4 -  4) =     18.15635  eV     1   --> B_1  D_3  S_3  
     e(  5 -  5) =     20.19896  eV     1   --> A_1  D_1  S_1  
     e(  6 -  6) =     25.55646  eV     1   --> A_2  D_2  S_2  
     e(  7 -  7) =     26.07719  eV     1   --> B_1  D_3  S_3  
     e(  8 -  8) =     27.16975  eV     1   --> B_2  D_4  S_4  

 **************************************************************************

 **************************************************************************

                    xk=(   0.45000,   0.45000,   0.00000  )

     Band symmetry, C_2v (mm2)  point group:

     e(  1 -  1) =      0.59225  eV     1   --> A_1  D_1  S_1  
     e(  2 -  2) =     10.40622  eV     1   --> B_2  D_4  S_4  
     e(  3 -  3) =     12.05703  eV     1   --> A_1  D_1  S_1  
     e(  4 -  4) =     18.77795  eV     1   --> B_1  D_3  S_3  
     e(  5 -  5) =     20.85104  eV     1   --> A_1  D_1  S_1  
     e(  6 -  6) =     24.90447  eV     1   --> A_2  D_2  S_2  
     e(  7 -  7) =     25.58127  eV     1   --> B_1  D_3  S_3  
     e(  8 -  8) =     26.62767  eV     1   --> B_2  D_4  S_4  

 **************************************************************************

 **************************************************************************

                    xk=(   0.41250,   0.41250,   0.00000  )

     Band symmetry, C_2v (mm2)  point group:

     e(  1 -  1) =     -0.00115  eV     1   --> A_1  D_1  S_1  
     e(  2 -  2) =     11.12854  eV     1   --> B_2  D_4  S_4  
     e(  3 -  3) =     12.76513  eV     1   --> A_1  D_1  S_1  
     e(  4 -  4) =     19.44623  eV     1   --> B_1  D_3  S_3  
     e(  5 -  5) =     21.53553  eV     1   --> A_1  D_1  S_1  
     e(  6 -  6) =     24.31388  eV     1   --> A_2  D_2  S_2  
     e(  7 -  7) =     25.13255  eV     1   --> B_1  D_3  S_3  
     e(  8 -  8) =     26.12970  eV     1   --> B_2  D_4  S_4  

 **************************************************************************

 **************************************************************************

                    xk=(   0.37500,   0.37500,   0.00000  )

     Band symmetry, C_2v (mm2)  point group:

     e(  1 -  1) =     -0.54605  eV     1   --> A_1  D_1  S_1  
     e(  2 -  2) =     11.89950  eV     1   --> B_2  D_4  S_4  
     e(  3 -  3) =     13.50668  eV     1   --> A_1  D_1  S_1  
     e(  4 -  4) =     20.15386  eV     1   --> B_1  D_3  S_3  
     e(  5 -  5) =     22.24896  eV     1   --> A_1  D_1  S_1  
     e(  6 -  6) =     23.77340  eV     1   --> A_2  D_2  S_2  
     e(  7 -  7) =     24.73292  eV     1   --> B_1  D_3  S_3  
     e(  8 -  8) =     25.67424  eV     1   --> B_2  D_4  S_4  

 **************************************************************************

 **************************************************************************

                    xk=(   0.33750,   0.33750,   0.00000  )

     Band symmetry, C_2v (mm2)  point group:

     e(  1 -  1) =     -1.04150  eV     1   --> A_1  D_1  S_1  
     e(  2 -  2) =     12.71890  eV     1   --> B_2  D_4  S_4  
     e(  3 -  3) =     14.27855  eV     1   --> A_1  D_1  S_1  
     e(  4 -  4) =     20.89356  eV     1   --> B_1  D_3  S_3  
     e(  5 -  5) =     22.99158  eV     1   --> A_1  D_1  S_1  
     e(  6 -  6) =     23.28344  eV     1   --> A_2  D_2  S_2  
     e(  7 -  7) =     24.38875  eV     1   --> B_1  D_3  S_3  
     e(  8 -  8) =     25.26656  eV     1   --> B_2  D_4  S_4  

 **************************************************************************

 **************************************************************************

                    xk=(   0.30000,   0.30000,   0.00000  )

     Band symmetry, C_2v (mm2)  point group:

     e(  1 -  1) =     -1.48698  eV     1   --> A_1  D_1  S_1  
     e(  2 -  2) =     13.58628  eV     1   --> B_2  D_4  S_4  
     e(  3 -  3) =     15.07685  eV     1   --> A_1  D_1  S_1  
     e(  4 -  4) =     21.64587  eV     1   --> B_1  D_3  S_3  
     e(  5 -  5) =     22.84437  eV     1   --> A_2  D_2  S_2  
     e(  6 -  6) =     23.74817  eV     1   --> A_1  D_1  S_1  
     e(  7 -  7) =     24.11810  eV     1   --> B_1  D_3  S_3  
     e(  8 -  8) =     24.89424  eV     1   --> B_2  D_4  S_4  

 **************************************************************************

 **************************************************************************

                    xk=(   0.26250,   0.26250,   0.00000  )

     Band symmetry, C_2v (mm2)  point group:

     e(  1 -  1) =     -1.88647  eV     1   --> A_1  D_1  S_1  
     e(  2 -  2) =     14.49070  eV     1   --> B_2  D_4  S_4  
     e(  3 -  3) =     15.89630  eV     1   --> A_1  D_1  S_1  
     e(  4 -  4) =     22.33804  eV     1   --> B_1  D_3  S_3  
     e(  5 -  5) =     22.45164  eV     1   --> A_2  D_2  S_2  
     e(  6 -  6) =     23.98324  eV     1   --> B_1  D_3  S_3  
     e(  7 -  7) =     24.50685  eV     1   --> A_1  D_1  S_1  
     e(  8 -  8) =     24.56151  eV     1   --> B_2  D_4  S_4  

 **************************************************************************

 **************************************************************************

                    xk=(   0.22500,   0.22500,   0.00000  )

     Band symmetry, C_2v (mm2)  point group:

     e(  1 -  1) =     -2.22976  eV     1   --> A_1  D_1  S_1  
     e(  2 -  2) =     15.45084  eV     1   --> B_2  D_4  S_4  
     e(  3 -  3) =     16.73517  eV     1   --> A_1  D_1  S_1  
     e(  4 -  4) =     22.11511  eV     1   --> A_2  D_2  S_2  
     e(  5 -  5) =     22.78407  eV     1   --> B_1  D_3  S_3  
     e(  6 -  6) =     24.18562  eV     1   --> B_1  D_3  S_3  
     e(  7 -  7) =     24.27166  eV     1   --> B_2  D_4  S_4  
     e(  8 -  8) =     25.21752  eV     1   --> A_1  D_1  S_1  

 **************************************************************************

 **************************************************************************

                    xk=(   0.18750,   0.18750,   0.00000  )

     Band symmetry, C_2v (mm2)  point group:

     e(  1 -  1) =     -2.52230  eV     1   --> A_1  D_1  S_1  
     e(  2 -  2) =     16.45241  eV     1   --> B_2  D_4  S_4  
     e(  3 -  3) =     17.57984  eV     1   --> A_1  D_1  S_1  
     e(  4 -  4) =     21.82996  eV     1   --> A_2  D_2  S_2  
     e(  5 -  5) =     22.85858  eV     1   --> B_1  D_3  S_3  
     e(  6 -  6) =     24.01200  eV     1   --> B_2  D_4  S_4  
     e(  7 -  7) =     24.82969  eV     1   --> B_1  D_3  S_3  
     e(  8 -  8) =     25.30865  eV     1   --> A_1  D_1  S_1  

 **************************************************************************

 **************************************************************************

                    xk=(   0.15000,   0.15000,   0.00000  )

     Band symmetry, C_2v (mm2)  point group:

     e(  1 -  1) =     -2.76326  eV     1   --> A_1  D_1  S_1  
     e(  2 -  2) =     17.48952  eV     1   --> B_2  D_4  S_4  
     e(  3 -  3) =     18.42831  eV     1   --> A_1  D_1  S_1  
     e(  4 -  4) =     21.59354  eV     1   --> A_2  D_2  S_2  
     e(  5 -  5) =     22.78410  eV     1   --> B_1  D_3  S_3  
     e(  6 -  6) =     23.77876  eV     1   --> B_2  D_4  S_4  
     e(  7 -  7) =     24.78068  eV     1   --> A_1  D_1  S_1  
     e(  8 -  8) =     25.67608  eV     1   --> B_1  D_3  S_3  

 **************************************************************************

 **************************************************************************

                    xk=(   0.11250,   0.11250,   0.00000  )

     Band symmetry, C_2v (mm2)  point group:

     e(  1 -  1) =     -2.94979  eV     1   --> A_1  D_1  S_1  
     e(  2 -  2) =     18.55569  eV     1   --> B_2  D_4  S_4  
     e(  3 -  3) =     19.26813  eV     1   --> A_1  D_1  S_1  
     e(  4 -  4) =     21.41176  eV     1   --> A_2  D_2  S_2  
     e(  5 -  5) =     22.69336  eV     1   --> B_1  D_3  S_3  
     e(  6 -  6) =     23.55253  eV     1   --> B_2  D_4  S_4  
     e(  7 -  7) =     24.16710  eV     1   --> A_1  D_1  S_1  
     e(  8 -  8) =     26.58437  eV     1   --> B_1  D_3  S_3  

 **************************************************************************

 **************************************************************************

                    xk=(   0.07500,   0.07500,   0.00000  )

     Band symmetry, C_2v (mm2)  point group:

     e(  1 -  1) =     -3.08414  eV     1   --> A_1  D_1  S_1  
     e(  2 -  2) =     19.62460  eV     1   --> B_2  D_4  S_4  
     e(  3 -  3) =     20.07405  eV     1   --> A_1  D_1  S_1  
     e(  4 -  4) =     21.28185  eV     1   --> A_2  D_2  S_2  
     e(  5 -  5) =     22.61822  eV     1   --> B_1  D_3  S_3  
     e(  6 -  6) =     23.28518  eV     1   --> B_2  D_4  S_4  
     e(  7 -  7) =     23.52249  eV     1   --> A_1  D_1  S_1  
     e(  8 -  8) =     26.15026  eV     1   --> B_2  D_4  S_4  

 **************************************************************************

 **************************************************************************

                    xk=(   0.03750,   0.03750,   0.00000  )

     Band symmetry, C_2v (mm2)  point group:

     e(  1 -  1) =     -3.16434  eV     1   --> A_1  D_1  S_1  
     e(  2 -  2) =     20.62148  eV     1   --> B_2  D_4  S_4  
     e(  3 -  3) =     20.79799  eV     1   --> A_1  D_1  S_1  
     e(  4 -  4) =     21.20388  eV     1   --> A_2  D_2  S_2  
     e(  5 -  5) =     22.57092  eV     1   --> B_1  D_3  S_3  
     e(  6 -  6) =     22.89199  eV     1   --> B_2  D_4  S_4  
     e(  7 -  7) =     22.90033  eV     1   --> A_1  D_1  S_1  
     e(  8 -  8) =     25.34608  eV     1   --> B_2  D_4  S_4  

 **************************************************************************

 **************************************************************************

                    xk=(   0.00000,   0.00000,   0.00000  )

     point group O_h (m-3m) 
     there are 10 classes
     the character table:

       E     8C3   3C2   6C4   6C2'  i     8S6   3s_h  6S4   6s_d 
A_1g   1.00  1.00  1.00  1.00  1.00  1.00  1.00  1.00  1.00  1.00
A_2g   1.00  1.00  1.00 -1.00 -1.00  1.00  1.00  1.00 -1.00 -1.00
E_g    2.00 -1.00  2.00  0.00  0.00  2.00 -1.00  2.00  0.00  0.00
T_1g   3.00  0.00 -1.00  1.00 -1.00  3.00  0.00 -1.00  1.00 -1.00
T_2g   3.00  0.00 -1.00 -1.00  1.00  3.00  0.00 -1.00 -1.00  1.00
A_1u   1.00  1.00  1.00  1.00  1.00 -1.00 -1.00 -1.00 -1.00 -1.00
A_2u   1.00  1.00  1.00 -1.00 -1.00 -1.00 -1.00 -1.00  1.00  1.00
E_u    2.00 -1.00  2.00  0.00  0.00 -2.00  1.00 -2.00  0.00  0.00
T_1u   3.00  0.00 -1.00  1.00 -1.00 -3.00  0.00  1.00 -1.00  1.00
T_2u   3.00  0.00 -1.00 -1.00  1.00 -3.00  0.00  1.00  1.00 -1.00

     the symmetry operations in each class and the name of the first element:

     E        1
                                                                 
     8C3     17   19   20   18   24   21   22   23
                                                                 
     3C2      2    4    3
                                                                 
     6C4      7    8   15   16   12   11
                                                                 
     6C2'     5    6   14   13   10    9
                                                                 
     i       25
                                                                 
     8S6     41   43   44   42   48   45   46   47
                                                                 
     3s_h    26   28   27
                                                                 
     6S4     31   32   39   40   36   35
                                                                 
     6s_d    29   30   38   37   34   33
                                                                 

     Band symmetry, O_h (m-3m)  point group:

     e(  1 -  1) =     -3.19109  eV     1   --> A_1g G_1   G_1+
     e(  2 -  4) =     21.17789  eV     3   --> T_2g G_25' G_5+
     e(  5 -  7) =     22.55482  eV     3   --> T_1u G_15  G_4-
     e(  8 -  8) =     25.05944  eV     1   --> A_2u G_2'  G_2-

 **************************************************************************

 **************************************************************************

                    xk=(   0.02500,   0.02500,   0.02500  )

     point group C_3v (3m)  
     there are  3 classes
     the character table:

       E     2C3   3s_v 
A_1    1.00  1.00  1.00
A_2    1.00  1.00 -1.00
E      2.00 -1.00  0.00

     the symmetry operations in each class and the name of the first element:

     E        1
                                                                 
     2C3      2    3
                                                                 
     3s_v     4    5    6
                                                                 

     Band symmetry, C_3v (3m)   point group:

     e(  1 -  1) =     -3.17325  eV     1   --> A_1  L_1       
     e(  2 -  2) =     20.70221  eV     1   --> A_1  L_1       
     e(  3 -  4) =     21.09090  eV     2   --> E    L_3       
     e(  5 -  6) =     22.66947  eV     2   --> E    L_3       
     e(  7 -  7) =     22.83139  eV     1   --> A_1  L_1       
     e(  8 -  8) =     25.25323  eV     1   --> A_1  L_1       

 **************************************************************************

 **************************************************************************

                    xk=(   0.05000,   0.05000,   0.05000  )

     Band symmetry, C_3v (3m)   point group:

     e(  1 -  1) =     -3.11978  eV     1   --> A_1  L_1       
     e(  2 -  2) =     19.80217  eV     1   --> A_1  L_1       
     e(  3 -  4) =     20.88789  eV     2   --> E    L_3       
     e(  5 -  6) =     22.95453  eV     2   --> E    L_3       
     e(  7 -  7) =     23.14489  eV     1   --> A_1  L_1       
     e(  8 -  8) =     25.82384  eV     1   --> A_1  L_1       

 **************************************************************************

 **************************************************************************

                    xk=(   0.07500,   0.07500,   0.07500  )

     Band symmetry, C_3v (3m)   point group:

     e(  1 -  1) =     -3.03072  eV     1   --> A_1  L_1       
     e(  2 -  2) =     18.80078  eV     1   --> A_1  L_1       
     e(  3 -  4) =     20.64616  eV     2   --> E    L_3       
     e(  5 -  5) =     23.27897  eV     1   --> A_1  L_1       
     e(  6 -  7) =     23.32938  eV     2   --> E    L_3       
     e(  8 -  8) =     26.66446  eV     1   --> A_1  L_1       

 **************************************************************************

 **************************************************************************

                    xk=(   0.10000,   0.10000,   0.10000  )

     Band symmetry, C_3v (3m)   point group:

     e(  1 -  1) =     -2.90617  eV     1   --> A_1  L_1       
     e(  2 -  2) =     17.77089  eV     1   --> A_1  L_1       
     e(  3 -  4) =     20.40316  eV     2   --> E    L_3       
     e(  5 -  5) =     23.30013  eV     1   --> A_1  L_1       
     e(  6 -  7) =     23.74775  eV     2   --> E    L_3       
     e(  8 -  8) =     27.00243  eV     1   -->   ?

 **************************************************************************

 **************************************************************************

                    xk=(   0.12500,   0.12500,   0.12500  )

     Band symmetry, C_3v (3m)   point group:

     e(  1 -  1) =     -2.74384  eV     1   --> A_1  L_1       
     e(  2 -  2) =     16.74137  eV     1   --> A_1  L_1       
     e(  3 -  4) =     20.17771  eV     2   --> E    L_3       
     e(  5 -  5) =     23.26606  eV     1   --> A_1  L_1       
     e(  6 -  7) =     24.16997  eV     2   --> E    L_3       
     e(  8 -  8) =     26.51050  eV     1   -->   ?

 **************************************************************************

 **************************************************************************

                    xk=(   0.15000,   0.15000,   0.15000  )

     Band symmetry, C_3v (3m)   point group:

     e(  1 -  1) =     -2.54891  eV     1   --> A_1  L_1       
     e(  2 -  2) =     15.71559  eV     1   --> A_1  L_1       
     e(  3 -  4) =     19.96943  eV     2   --> E    L_3       
     e(  5 -  5) =     23.20660  eV     1   --> A_1  L_1       
     e(  6 -  7) =     24.50470  eV     2   --> E    L_3       
     e(  8 -  8) =     26.13717  eV     1   -->   ?

 **************************************************************************

 **************************************************************************

                    xk=(   0.17500,   0.17500,   0.17500  )

     Band symmetry, C_3v (3m)   point group:

     e(  1 -  1) =     -2.31774  eV     1   --> A_1  L_1       
     e(  2 -  2) =     14.70728  eV     1   --> A_1  L_1       
     e(  3 -  4) =     19.78594  eV     2   --> E    L_3       
     e(  5 -  5) =     23.12911  eV     1   --> A_1  L_1       
     e(  6 -  7) =     24.54087  eV     2   --> E    L_3       
     e(  8 -  8) =     26.10920  eV     1   -->   ?

 **************************************************************************

 **************************************************************************

                    xk=(   0.20000,   0.20000,   0.20000  )

     Band symmetry, C_3v (3m)   point group:

     e(  1 -  1) =     -2.05325  eV     1   --> A_1  L_1       
     e(  2 -  2) =     13.71369  eV     1   --> A_1  L_1       
     e(  3 -  4) =     19.62786  eV     2   --> E    L_3       
     e(  5 -  5) =     23.06153  eV     1   --> A_1  L_1       
     e(  6 -  7) =     24.23625  eV     2   --> E    L_3       
     e(  8 -  8) =     26.47539  eV     1   -->   ?

 **************************************************************************

 **************************************************************************

                    xk=(   0.22500,   0.22500,   0.22500  )

     Band symmetry, C_3v (3m)   point group:

     e(  1 -  1) =     -1.75285  eV     1   --> A_1  L_1       
     e(  2 -  2) =     12.74152  eV     1   --> A_1  L_1       
     e(  3 -  4) =     19.49974  eV     2   --> E    L_3       
     e(  5 -  5) =     23.00360  eV     1   --> A_1  L_1       
     e(  6 -  7) =     23.80207  eV     2   --> E    L_3       
     e(  8 -  8) =     27.03280  eV     1   -->   ?

 **************************************************************************

 **************************************************************************

                    xk=(   0.25000,   0.25000,   0.25000  )

     Band symmetry, C_3v (3m)   point group:

     e(  1 -  1) =     -1.41988  eV     1   --> A_1  L_1       
     e(  2 -  2) =     11.79122  eV     1   --> A_1  L_1       
     e(  3 -  4) =     19.39610  eV     2   --> E    L_3       
     e(  5 -  5) =     22.95883  eV     1   --> A_1  L_1       
     e(  6 -  7) =     23.34148  eV     2   --> E    L_3       
     e(  8 -  8) =     27.37600  eV     1   --> A_1  L_1       

 **************************************************************************

 **************************************************************************

                    xk=(   0.27500,   0.27500,   0.27500  )

     Band symmetry, C_3v (3m)   point group:

     e(  1 -  1) =     -1.05313  eV     1   --> A_1  L_1       
     e(  2 -  2) =     10.86473  eV     1   --> A_1  L_1       
     e(  3 -  4) =     19.32059  eV     2   --> E    L_3       
     e(  5 -  6) =     22.88721  eV     2   --> E    L_3       
     e(  7 -  7) =     22.93220  eV     1   --> A_1  L_1       
     e(  8 -  8) =     26.93690  eV     1   --> A_1  L_1       

 **************************************************************************

 **************************************************************************

                    xk=(   0.30000,   0.30000,   0.30000  )

     Band symmetry, C_3v (3m)   point group:

     e(  1 -  1) =     -0.65029  eV     1   --> A_1  L_1       
     e(  2 -  2) =      9.96317  eV     1   --> A_1  L_1       
     e(  3 -  4) =     19.27504  eV     2   --> E    L_3       
     e(  5 -  6) =     22.45894  eV     2   --> E    L_3       
     e(  7 -  7) =     22.92695  eV     1   --> A_1  L_1       
     e(  8 -  8) =     26.51207  eV     1   --> A_1  L_1       

 **************************************************************************

 **************************************************************************

                    xk=(   0.32500,   0.32500,   0.32500  )

     Band symmetry, C_3v (3m)   point group:

     e(  1 -  1) =     -0.21713  eV     1   --> A_1  L_1       
     e(  2 -  2) =      9.08706  eV     1   --> A_1  L_1       
     e(  3 -  4) =     19.25636  eV     2   --> E    L_3       
     e(  5 -  6) =     22.04592  eV     2   --> E    L_3       
     e(  7 -  7) =     22.94527  eV     1   --> A_1  L_1       
     e(  8 -  8) =     26.10347  eV     1   --> A_1  L_1       

 **************************************************************************

 **************************************************************************

                    xk=(   0.35000,   0.35000,   0.35000  )

[...]
     e(  4 -  4) =     15.12950  eV     1   --> A''            
     e(  5 -  5) =     16.80374  eV     1   --> A'             
     e(  6 -  6) =     24.75418  eV     1   --> A'             
     e(  7 -  7) =     30.25639  eV     1   --> A''            
     e(  8 -  8) =     31.22344  eV     1   --> A''            

 **************************************************************************

 **************************************************************************

                    xk=(   0.75000,   0.75000,   0.00000  )

     point group C_2v (mm2) 
     there are  4 classes
     the character table:

       E     C2    s_v   s_v' 
A_1    1.00  1.00  1.00  1.00
A_2    1.00  1.00 -1.00 -1.00
B_1    1.00 -1.00  1.00 -1.00
B_2    1.00 -1.00 -1.00  1.00

     the symmetry operations in each class and the name of the first element:

     E        1
                                                                 
     C2       2
                                                                 
     s_v      3
                                                                 
     s_v'     4
                                                                 

     Band symmetry, C_2v (mm2)  point group:

     e(  1 -  1) =      6.37191  eV     1   --> B_2  D_4  S_4  
     e(  2 -  2) =      6.86757  eV     1   --> A_1  D_1  S_1  
     e(  3 -  3) =      7.95225  eV     1   --> A_1  D_1  S_1  
     e(  4 -  4) =     15.02510  eV     1   --> B_1  D_3  S_3  
     e(  5 -  5) =     16.67487  eV     1   --> A_1  D_1  S_1  
     e(  6 -  6) =     24.28480  eV     1   --> A_1  D_1  S_1  
     e(  7 -  7) =     30.72907  eV     1   --> B_1  D_3  S_3  
     e(  8 -  8) =     31.32832  eV     1   --> A_2  D_2  S_2  

 **************************************************************************

 **************************************************************************

                    xk=(   0.25000,   1.00000,   0.25000  )

     Band symmetry, C_2v (mm2)  point group:

     e(  1 -  1) =      6.37191  eV     1   --> B_2  D_4  S_4  
     e(  2 -  2) =      6.86757  eV     1   --> A_1  D_1  S_1  
     e(  3 -  3) =      7.95225  eV     1   --> A_1  D_1  S_1  
     e(  4 -  4) =     15.02510  eV     1   --> B_1  D_3  S_3  
     e(  5 -  5) =     16.67487  eV     1   --> A_1  D_1  S_1  
     e(  6 -  6) =     24.28480  eV     1   --> A_1  D_1  S_1  
     e(  7 -  7) =     30.72907  eV     1   --> B_1  D_3  S_3  
     e(  8 -  8) =     31.32832  eV     1   --> A_2  D_2  S_2  

 **************************************************************************

 **************************************************************************

                    xk=(   0.23750,   1.00000,   0.23750  )

     Band symmetry, C_2v (mm2)  point group:

     e(  1 -  1) =      6.27018  eV     1   --> B_2  D_4  S_4  
     e(  2 -  2) =      7.11587  eV     1   --> A_1  D_1  S_1  
     e(  3 -  3) =      7.91499  eV     1   --> A_1  D_1  S_1  
     e(  4 -  4) =     14.93045  eV     1   --> B_1  D_3  S_3  
     e(  5 -  5) =     16.55557  eV     1   --> A_1  D_1  S_1  
     e(  6 -  6) =     23.82203  eV     1   --> A_1  D_1  S_1  
     e(  7 -  7) =     30.99704  eV     1   --> B_1  D_3  S_3  
     e(  8 -  8) =     31.65166  eV     1   --> A_2  D_2  S_2  

 **************************************************************************

 **************************************************************************

                    xk=(   0.22500,   1.00000,   0.22500  )

     Band symmetry, C_2v (mm2)  point group:

     e(  1 -  1) =      6.17371  eV     1   --> B_2  D_4  S_4  
     e(  2 -  2) =      7.27981  eV     1   --> A_1  D_1  S_1  
     e(  3 -  3) =      7.97141  eV     1   --> A_1  D_1  S_1  
     e(  4 -  4) =     14.84071  eV     1   --> B_1  D_3  S_3  
     e(  5 -  5) =     16.44017  eV     1   --> A_1  D_1  S_1  
     e(  6 -  6) =     23.36274  eV     1   --> A_1  D_1  S_1  
     e(  7 -  7) =     31.26785  eV     1   --> B_1  D_3  S_3  
     e(  8 -  8) =     31.97805  eV     1   --> A_2  D_2  S_2  

 **************************************************************************

 **************************************************************************

                    xk=(   0.21250,   1.00000,   0.21250  )

     Band symmetry, C_2v (mm2)  point group:

     e(  1 -  1) =      6.08250  eV     1   --> B_2  D_4  S_4  
     e(  2 -  2) =      7.32472  eV     1   --> A_1  D_1  S_1  
     e(  3 -  3) =      8.15605  eV     1   --> A_1  D_1  S_1  
     e(  4 -  4) =     14.75588  eV     1   --> B_1  D_3  S_3  
     e(  5 -  5) =     16.32842  eV     1   --> A_1  D_1  S_1  
     e(  6 -  6) =     22.90785  eV     1   --> A_1  D_1  S_1  
     e(  7 -  7) =     31.54112  eV     1   --> B_1  D_3  S_3  
     e(  8 -  8) =     32.30712  eV     1   --> A_2  D_2  S_2  

 **************************************************************************

 **************************************************************************

                    xk=(   0.20000,   1.00000,   0.20000  )

     Band symmetry, C_2v (mm2)  point group:

     e(  1 -  1) =      5.99653  eV     1   --> B_2  D_4  S_4  
     e(  2 -  2) =      7.29581  eV     1   --> A_1  D_1  S_1  
     e(  3 -  3) =      8.42353  eV     1   --> A_1  D_1  S_1  
     e(  4 -  4) =     14.67595  eV     1   --> B_1  D_3  S_3  
     e(  5 -  5) =     16.21997  eV     1   --> A_1  D_1  S_1  
     e(  6 -  6) =     22.45831  eV     1   --> A_1  D_1  S_1  
     e(  7 -  7) =     31.81635  eV     1   --> B_1  D_3  S_3  
     e(  8 -  8) =     32.63843  eV     1   --> A_2  D_2  S_2  

 **************************************************************************

 **************************************************************************

                    xk=(   0.18750,   1.00000,   0.18750  )

     Band symmetry, C_2v (mm2)  point group:

     e(  1 -  1) =      5.91581  eV     1   --> B_2  D_4  S_4  
     e(  2 -  2) =      7.23938  eV     1   --> A_1  D_1  S_1  
     e(  3 -  3) =      8.72742  eV     1   --> A_1  D_1  S_1  
     e(  4 -  4) =     14.60092  eV     1   --> B_1  D_3  S_3  
     e(  5 -  5) =     16.11439  eV     1   --> A_1  D_1  S_1  
     e(  6 -  6) =     22.01511  eV     1   --> A_1  D_1  S_1  
     e(  7 -  7) =     32.09297  eV     1   --> B_1  D_3  S_3  
     e(  8 -  8) =     32.97149  eV     1   --> A_2  D_2  S_2  

 **************************************************************************

 **************************************************************************

                    xk=(   0.17500,   1.00000,   0.17500  )

     Band symmetry, C_2v (mm2)  point group:

     e(  1 -  1) =      5.84032  eV     1   --> B_2  D_4  S_4  
     e(  2 -  2) =      7.17446  eV     1   --> A_1  D_1  S_1  
     e(  3 -  3) =      9.04844  eV     1   --> A_1  D_1  S_1  
     e(  4 -  4) =     14.53077  eV     1   --> B_1  D_3  S_3  
     e(  5 -  5) =     16.01109  eV     1   --> A_1  D_1  S_1  
     e(  6 -  6) =     21.57936  eV     1   --> A_1  D_1  S_1  
     e(  7 -  7) =     32.37027  eV     1   --> B_1  D_3  S_3  
     e(  8 -  8) =     33.30565  eV     1   --> A_2  D_2  S_2  

 **************************************************************************

 **************************************************************************

                    xk=(   0.16250,   1.00000,   0.16250  )

     Band symmetry, C_2v (mm2)  point group:

     e(  1 -  1) =      5.77006  eV     1   --> B_2  D_4  S_4  
     e(  2 -  2) =      7.10831  eV     1   --> A_1  D_1  S_1  
     e(  3 -  3) =      9.37909  eV     1   --> A_1  D_1  S_1  
     e(  4 -  4) =     14.46551  eV     1   --> B_1  D_3  S_3  
     e(  5 -  5) =     15.90932  eV     1   --> A_1  D_1  S_1  
     e(  6 -  6) =     21.15234  eV     1   --> A_1  D_1  S_1  
     e(  7 -  7) =     32.64737  eV     1   --> B_1  D_3  S_3  
     e(  8 -  8) =     33.64016  eV     1   --> A_2  D_2  S_2  

 **************************************************************************

 **************************************************************************

                    xk=(   0.15000,   1.00000,   0.15000  )

     Band symmetry, C_2v (mm2)  point group:

     e(  1 -  1) =      5.70503  eV     1   --> B_2  D_4  S_4  
     e(  2 -  2) =      7.04405  eV     1   --> A_1  D_1  S_1  
     e(  3 -  3) =      9.71593  eV     1   --> A_1  D_1  S_1  
     e(  4 -  4) =     14.40511  eV     1   --> B_1  D_3  S_3  
     e(  5 -  5) =     15.80811  eV     1   --> A_1  D_1  S_1  
     e(  6 -  6) =     20.73559  eV     1   --> A_1  D_1  S_1  
     e(  7 -  7) =     32.92321  eV     1   --> B_1  D_3  S_3  
     e(  8 -  8) =     33.97407  eV     1   --> A_2  D_2  S_2  

 **************************************************************************

 **************************************************************************

                    xk=(   0.13750,   1.00000,   0.13750  )

     Band symmetry, C_2v (mm2)  point group:

     e(  1 -  1) =      5.64523  eV     1   --> B_2  D_4  S_4  
     e(  2 -  2) =      6.98320  eV     1   --> A_1  D_1  S_1  
     e(  3 -  3) =     10.05705  eV     1   --> A_1  D_1  S_1  
     e(  4 -  4) =     14.34958  eV     1   --> B_1  D_3  S_3  
     e(  5 -  5) =     15.70619  eV     1   --> A_1  D_1  S_1  
     e(  6 -  6) =     20.33094  eV     1   --> A_1  D_1  S_1  
     e(  7 -  7) =     33.19645  eV     1   --> B_1  D_3  S_3  
     e(  8 -  8) =     34.30620  eV     1   --> A_2  D_2  S_2  

 **************************************************************************

 **************************************************************************

                    xk=(   0.12500,   1.00000,   0.12500  )

     Band symmetry, C_2v (mm2)  point group:

     e(  1 -  1) =      5.59064  eV     1   --> B_2  D_4  S_4  
     e(  2 -  2) =      6.92659  eV     1   --> A_1  D_1  S_1  
     e(  3 -  3) =     10.40114  eV     1   --> A_1  D_1  S_1  
     e(  4 -  4) =     14.29892  eV     1   --> B_1  D_3  S_3  
     e(  5 -  5) =     15.60191  eV     1   --> A_1  D_1  S_1  
     e(  6 -  6) =     19.94069  eV     1   --> A_1  D_1  S_1  
     e(  7 -  7) =     33.46547  eV     1   --> B_1  D_3  S_3  
     e(  8 -  8) =     34.63505  eV     1   --> A_2  D_2  S_2  

 **************************************************************************

 **************************************************************************

                    xk=(   0.11250,   1.00000,   0.11250  )

     Band symmetry, C_2v (mm2)  point group:

     e(  1 -  1) =      5.54127  eV     1   --> B_2  D_4  S_4  
     e(  2 -  2) =      6.87470  eV     1   --> A_1  D_1  S_1  
     e(  3 -  3) =     10.74711  eV     1   --> A_1  D_1  S_1  
     e(  4 -  4) =     14.25311  eV     1   --> B_1  D_3  S_3  
     e(  5 -  5) =     15.49319  eV     1   --> A_1  D_1  S_1  
     e(  6 -  6) =     19.56768  eV     1   --> A_1  D_1  S_1  
     e(  7 -  7) =     33.72822  eV     1   --> B_1  D_3  S_3  
     e(  8 -  8) =     34.95871  eV     1   --> A_2  D_2  S_2  

 **************************************************************************

 **************************************************************************

                    xk=(   0.10000,   1.00000,   0.10000  )

     Band symmetry, C_2v (mm2)  point group:

     e(  1 -  1) =      5.49711  eV     1   --> B_2  D_4  S_4  
     e(  2 -  2) =      6.82783  eV     1   --> A_1  D_1  S_1  
     e(  3 -  3) =     11.09388  eV     1   --> A_1  D_1  S_1  
     e(  4 -  4) =     14.21215  eV     1   --> B_1  D_3  S_3  
     e(  5 -  5) =     15.37742  eV     1   --> A_1  D_1  S_1  
     e(  6 -  6) =     19.21541  eV     1   --> A_1  D_1  S_1  
     e(  7 -  7) =     33.98218  eV     1   --> B_1  D_3  S_3  
     e(  8 -  8) =     35.27471  eV     1   --> A_2  D_2  S_2  

 **************************************************************************

 **************************************************************************

                    xk=(   0.08750,   1.00000,   0.08750  )

     Band symmetry, C_2v (mm2)  point group:

     e(  1 -  1) =      5.45791  eV     1   --> B_2  D_4  S_4  
     e(  2 -  2) =      6.78343  eV     1   --> A_1  D_1  S_1  
     e(  3 -  3) =     11.43990  eV     1   --> A_1  D_1  S_1  
     e(  4 -  4) =     14.17418  eV     1   --> B_1  D_3  S_3  
     e(  5 -  5) =     15.24974  eV     1   --> A_1  D_1  S_1  
     e(  6 -  6) =     18.88615  eV     1   --> A_1  D_1  S_1  
     e(  7 -  7) =     34.21041  eV     1   --> B_1  D_3  S_3  
     e(  8 -  8) =     35.57767  eV     1   --> A_2  D_2  S_2  

 **************************************************************************

 **************************************************************************

                    xk=(   0.07500,   1.00000,   0.07500  )

     Band symmetry, C_2v (mm2)  point group:

     e(  1 -  1) =      5.42415  eV     1   --> B_2  D_4  S_4  
     e(  2 -  2) =      6.74714  eV     1   --> A_1  D_1  S_1  
     e(  3 -  3) =     11.78440  eV     1   --> A_1  D_1  S_1  
     e(  4 -  4) =     14.14283  eV     1   --> B_1  D_3  S_3  
     e(  5 -  5) =     15.11000  eV     1   --> A_1  D_1  S_1  
     e(  6 -  6) =     18.58881  eV     1   --> A_1  D_1  S_1  
     e(  7 -  7) =     34.43681  eV     1   --> B_1  D_3  S_3  
     e(  8 -  8) =     35.86731  eV     1   --> A_2  D_2  S_2  

 **************************************************************************

 **************************************************************************

                    xk=(   0.06250,   1.00000,   0.06250  )

     Band symmetry, C_2v (mm2)  point group:

     e(  1 -  1) =      5.39561  eV     1   --> B_2  D_4  S_4  
     e(  2 -  2) =      6.71632  eV     1   --> A_1  D_1  S_1  
     e(  3 -  3) =     12.12514  eV     1   --> A_1  D_1  S_1  
     e(  4 -  4) =     14.11631  eV     1   --> B_1  D_3  S_3  
     e(  5 -  5) =     14.95319  eV     1   --> A_1  D_1  S_1  
     e(  6 -  6) =     18.32661  eV     1   --> A_1  D_1  S_1  
     e(  7 -  7) =     34.64302  eV     1   --> B_1  D_3  S_3  
     e(  8 -  8) =     36.13616  eV     1   --> A_2  D_2  S_2  

 **************************************************************************

 **************************************************************************

                    xk=(   0.05000,   1.00000,   0.05000  )

     Band symmetry, C_2v (mm2)  point group:

     e(  1 -  1) =      5.37285  eV     1   --> B_2  D_4  S_4  
     e(  2 -  2) =      6.69174  eV     1   --> A_1  D_1  S_1  
     e(  3 -  3) =     12.45949  eV     1   --> A_1  D_1  S_1  
     e(  4 -  4) =     14.09463  eV     1   --> B_1  D_3  S_3  
     e(  5 -  5) =     14.78008  eV     1   --> A_1  D_1  S_1  
     e(  6 -  6) =     18.10481  eV     1   --> A_1  D_1  S_1  
     e(  7 -  7) =     34.82379  eV     1   --> B_1  D_3  S_3  
     e(  8 -  8) =     36.37704  eV     1   --> A_2  D_2  S_2  

 **************************************************************************

 **************************************************************************

                    xk=(   0.03750,   1.00000,   0.03750  )

     Band symmetry, C_2v (mm2)  point group:

     e(  1 -  1) =      5.35467  eV     1   --> B_2  D_4  S_4  
     e(  2 -  2) =      6.67203  eV     1   --> A_1  D_1  S_1  
     e(  3 -  3) =     12.78314  eV     1   --> A_1  D_1  S_1  
     e(  4 -  4) =     14.07779  eV     1   --> B_1  D_3  S_3  
     e(  5 -  5) =     14.58338  eV     1   --> A_1  D_1  S_1  
     e(  6 -  6) =     17.92805  eV     1   --> A_1  D_1  S_1  
     e(  7 -  7) =     34.97335  eV     1   --> B_1  D_3  S_3  
     e(  8 -  8) =     36.58106  eV     1   -->   ?

 **************************************************************************

 **************************************************************************

                    xk=(   0.02500,   1.00000,   0.02500  )

     Band symmetry, C_2v (mm2)  point group:

     e(  1 -  1) =      5.34143  eV     1   --> B_2  D_4  S_4  
     e(  2 -  2) =      6.65517  eV     1   --> A_1  D_1  S_1  
     e(  3 -  3) =     13.08346  eV     1   --> A_1  D_1  S_1  
     e(  4 -  4) =     14.06495  eV     1   --> B_1  D_3  S_3  
     e(  5 -  5) =     14.37142  eV     1   --> A_1  D_1  S_1  
     e(  6 -  6) =     17.79883  eV     1   --> A_1  D_1  S_1  
     e(  7 -  7) =     35.07682  eV     1   --> B_1  D_3  S_3  
     e(  8 -  8) =     36.73720  eV     1   -->   ?

 **************************************************************************

 **************************************************************************

                    xk=(   0.01250,   1.00000,   0.01250  )

     Band symmetry, C_2v (mm2)  point group:

     e(  1 -  1) =      5.33363  eV     1   --> B_2  D_4  S_4  
     e(  2 -  2) =      6.64669  eV     1   --> A_1  D_1  S_1  
     e(  3 -  3) =     13.34577  eV     1   --> A_1  D_1  S_1  
     e(  4 -  4) =     14.05771  eV     1   --> B_1  D_3  S_3  
     e(  5 -  5) =     14.16528  eV     1   --> A_1  D_1  S_1  
     e(  6 -  6) =     17.72120  eV     1   --> A_1  D_1  S_1  
     e(  7 -  7) =     35.14623  eV     1   --> B_1  D_3  S_3  
     e(  8 -  8) =     36.83668  eV     1   -->   ?

 **************************************************************************

 **************************************************************************

                    xk=(   0.00000,   1.00000,   0.00000  )

     point group D_4h(4/mmm)
     there are 10 classes
     the character table:

       E     2C4   C2    2C2'  2C2'' i     2S4   s_h   2s_v  2s_d 
A_1g   1.00  1.00  1.00  1.00  1.00  1.00  1.00  1.00  1.00  1.00
A_2g   1.00  1.00  1.00 -1.00 -1.00  1.00  1.00  1.00 -1.00 -1.00
B_1g   1.00 -1.00  1.00  1.00 -1.00  1.00 -1.00  1.00  1.00 -1.00
B_2g   1.00 -1.00  1.00 -1.00  1.00  1.00 -1.00  1.00 -1.00  1.00
E_g    2.00  0.00 -2.00  0.00  0.00  2.00  0.00 -2.00  0.00  0.00
A_1u   1.00  1.00  1.00  1.00  1.00 -1.00 -1.00 -1.00 -1.00 -1.00
A_2u   1.00  1.00  1.00 -1.00 -1.00 -1.00 -1.00 -1.00  1.00  1.00
B_1u   1.00 -1.00  1.00  1.00 -1.00 -1.00  1.00 -1.00 -1.00  1.00
B_2u   1.00 -1.00  1.00 -1.00  1.00 -1.00  1.00 -1.00  1.00 -1.00
E_u    2.00  0.00 -2.00  0.00  0.00 -2.00  0.00  2.00  0.00  0.00

     the symmetry operations in each class and the name of the first element:

     E        1
                                                                 
     2C4      7    8
                                                                 
     C2       3
                                                                 
     2C2'     2    4
                                                                 
     2C2''    5    6
                                                                 
     i        9
                                                                 
     2S4     15   16
                                                                 
     s_h     11
                                                                 
     2s_v    10   12
                                                                 
     2s_d    13   14
                                                                 

     Band symmetry, D_4h(4/mmm) point group:

     e(  1 -  1) =      5.33103  eV     1   --> A_2u X_4' M_4' 
     e(  2 -  2) =      6.64386  eV     1   --> A_1g X_1  M_1  
     e(  3 -  3) =     13.47458  eV     1   --> B_2g X_3  M_3  
     e(  4 -  5) =     14.05529  eV     2   --> E_u  X_5' M_5' 
     e(  6 -  6) =     17.69523  eV     1   --> A_1g X_1  M_1  
     e(  7 -  7) =     35.16981  eV     1   --> B_1g X_2  M_2  
     e(  8 -  8) =     36.87068  eV     1   -->   ?

 **************************************************************************

     BANDS        :      0.53s CPU      0.58s WALL


   This run was terminated on:  20:55: 4  26Jun2021            

=------------------------------------------------------------------------------=
   JOB DONE.
=------------------------------------------------------------------------------=
