
     Program PWSCF v.6.7MaX starts on 27Jun2021 at 14:15:14 

     This program is part of the open-source Quantum ESPRESSO suite
     for quantum simulation of materials; please cite
         "P. Giannozzi et al., J. Phys.:Condens. Matter 21 395502 (2009);
         "P. Giannozzi et al., J. Phys.:Condens. Matter 29 465901 (2017);
          URL http://www.quantum-espresso.org", 
     in publications or presentations arising from this work. More details at
     http://www.quantum-espresso.org/quote

     Serial version
     Reading input from al.nscf.cg.in

     Current dimensions of program PWSCF are:
     Max number of different atomic species (ntypx) = 10
     Max number of k-points (npk) =  40000
     Max angular momentum in pseudopotentials (lmaxx) =  3

     Atomic positions and unit cell read from directory:
     /home/k-tsukamoto/win/Documents/QuantumEspresso/q-e-qe-6.7.0/tempdir/al.save/

     [opt_tetra]  Optimized tetrahedron method is used.

     G-vector sticks info
     --------------------
     sticks:   dense  smooth     PW     G-vecs:    dense   smooth      PW
     Sum         121     121     55                  869      869     229



     bravais-lattice index     =            2
     lattice parameter (alat)  =       7.5000  a.u.
     unit-cell volume          =     105.4688 (a.u.)^3
     number of atoms/cell      =            1
     number of atomic types    =            1
     number of electrons       =         3.00
     number of Kohn-Sham states=            6
     kinetic-energy cutoff     =      15.0000  Ry
     charge density cutoff     =      60.0000  Ry
     Exchange-correlation= SLA  PZ   NOGX NOGC
                           (   1   1   0   0   0   0   0)

     celldm(1)=   7.500000  celldm(2)=   0.000000  celldm(3)=   0.000000
     celldm(4)=   0.000000  celldm(5)=   0.000000  celldm(6)=   0.000000

     crystal axes: (cart. coord. in units of alat)
               a(1) = (  -0.500000   0.000000   0.500000 )  
               a(2) = (   0.000000   0.500000   0.500000 )  
               a(3) = (  -0.500000   0.500000   0.000000 )  

     reciprocal axes: (cart. coord. in units 2 pi/alat)
               b(1) = ( -1.000000 -1.000000  1.000000 )  
               b(2) = (  1.000000  1.000000  1.000000 )  
               b(3) = ( -1.000000  1.000000 -1.000000 )  


     PseudoPot. # 1 for Al read from file:
     /home/k-tsukamoto/win/Documents/QuantumEspresso/q-e-qe-6.7.0/pseudo/Al.pz-vbc.UPF
     MD5 check sum: f06ceae8da0fe5c02c98e3688433298c
     Pseudo is Norm-conserving, Zval =  3.0
     Generated by new atomic code, or converted to UPF format
     Using radial grid of  171 points,  2 beta functions with: 
                l(1) =   0
                l(2) =   1

     atomic species   valence    mass     pseudopotential
        Al             3.00    26.98000     Al( 1.00)

     48 Sym. Ops., with inversion, found



   Cartesian axes

     site n.     atom                  positions (alat units)
         1           Al  tau(   1) = (   0.0000000   0.0000000   0.0000000  )

     number of k points=    47 (tetrahedron method)
                       cart. coord. in units 2pi/alat
        k(    1) = (   0.0000000   0.0000000   0.0000000), wk =   0.0020000
        k(    2) = (  -0.1000000   0.1000000  -0.1000000), wk =   0.0160000
        k(    3) = (  -0.2000000   0.2000000  -0.2000000), wk =   0.0160000
        k(    4) = (  -0.3000000   0.3000000  -0.3000000), wk =   0.0160000
        k(    5) = (  -0.4000000   0.4000000  -0.4000000), wk =   0.0160000
        k(    6) = (   0.5000000  -0.5000000   0.5000000), wk =   0.0080000
        k(    7) = (   0.0000000   0.2000000   0.0000000), wk =   0.0120000
        k(    8) = (  -0.1000000   0.3000000  -0.1000000), wk =   0.0480000
        k(    9) = (  -0.2000000   0.4000000  -0.2000000), wk =   0.0480000
        k(   10) = (  -0.3000000   0.5000000  -0.3000000), wk =   0.0480000
        k(   11) = (   0.6000000  -0.4000000   0.6000000), wk =   0.0480000
        k(   12) = (   0.5000000  -0.3000000   0.5000000), wk =   0.0480000
        k(   13) = (   0.4000000  -0.2000000   0.4000000), wk =   0.0480000
        k(   14) = (   0.3000000  -0.1000000   0.3000000), wk =   0.0480000
        k(   15) = (   0.2000000   0.0000000   0.2000000), wk =   0.0240000
        k(   16) = (   0.0000000   0.4000000   0.0000000), wk =   0.0120000
        k(   17) = (  -0.1000000   0.5000000  -0.1000000), wk =   0.0480000
        k(   18) = (  -0.2000000   0.6000000  -0.2000000), wk =   0.0480000
        k(   19) = (   0.7000000  -0.3000000   0.7000000), wk =   0.0480000
        k(   20) = (   0.6000000  -0.2000000   0.6000000), wk =   0.0480000
        k(   21) = (   0.5000000  -0.1000000   0.5000000), wk =   0.0480000
        k(   22) = (   0.4000000   0.0000000   0.4000000), wk =   0.0240000
        k(   23) = (   0.0000000   0.6000000   0.0000000), wk =   0.0120000
        k(   24) = (  -0.1000000   0.7000000  -0.1000000), wk =   0.0480000
        k(   25) = (   0.8000000  -0.2000000   0.8000000), wk =   0.0480000
        k(   26) = (   0.7000000  -0.1000000   0.7000000), wk =   0.0480000
        k(   27) = (   0.6000000   0.0000000   0.6000000), wk =   0.0240000
        k(   28) = (   0.0000000   0.8000000   0.0000000), wk =   0.0120000
        k(   29) = (   0.9000000  -0.1000000   0.9000000), wk =   0.0480000
        k(   30) = (   0.8000000   0.0000000   0.8000000), wk =   0.0240000
        k(   31) = (   0.0000000  -1.0000000   0.0000000), wk =   0.0060000
        k(   32) = (  -0.2000000   0.4000000   0.0000000), wk =   0.0480000
        k(   33) = (  -0.3000000   0.5000000  -0.1000000), wk =   0.0960000
        k(   34) = (   0.6000000  -0.4000000   0.8000000), wk =   0.0960000
        k(   35) = (   0.5000000  -0.3000000   0.7000000), wk =   0.0480000
        k(   36) = (  -0.2000000   0.6000000   0.0000000), wk =   0.0480000
        k(   37) = (   0.7000000  -0.3000000   0.9000000), wk =   0.0960000
        k(   38) = (   0.6000000  -0.2000000   0.8000000), wk =   0.0960000
        k(   39) = (   0.5000000  -0.1000000   0.7000000), wk =   0.0960000
        k(   40) = (   0.4000000   0.0000000   0.6000000), wk =   0.0480000
        k(   41) = (   0.8000000  -0.2000000   1.0000000), wk =   0.0480000
        k(   42) = (   0.7000000  -0.1000000   0.9000000), wk =   0.0960000
        k(   43) = (   0.6000000   0.0000000   0.8000000), wk =   0.0480000
        k(   44) = (  -0.2000000  -1.0000000   0.0000000), wk =   0.0240000
        k(   45) = (   0.6000000  -0.2000000   1.0000000), wk =   0.0480000
        k(   46) = (   0.5000000  -0.1000000   0.9000000), wk =   0.0480000
        k(   47) = (  -0.4000000  -1.0000000   0.0000000), wk =   0.0240000

     Dense  grid:      869 G-vectors     FFT dimensions: (  15,  15,  15)

     Estimated max dynamical RAM per process >       0.43 MB

     The potential is recalculated from file :
     /home/k-tsukamoto/win/Documents/QuantumEspresso/q-e-qe-6.7.0/tempdir/al.save/charge-density

     Starting wfcs are    4 randomized atomic wfcs +    2 random wfcs

     Band Structure Calculation
     CG style diagonalization

     ethr =  3.33E-08,  avg # of iterations = 15.0

     total cpu time spent up to now is        0.6 secs

     End of band structure calculation

          k = 0.0000 0.0000 0.0000 (   113 PWs)   bands (ev):

    -3.1911  21.1779  21.1779  21.1779  22.5548  22.5548

          k =-0.1000 0.1000-0.1000 (   113 PWs)   bands (ev):

    -2.9062  17.7709  20.4032  20.4032  23.3001  23.7477

          k =-0.2000 0.2000-0.2000 (   107 PWs)   bands (ev):

    -2.0533  13.7137  19.6279  19.6279  23.0615  24.2363

          k =-0.3000 0.3000-0.3000 (    98 PWs)   bands (ev):

    -0.6503   9.9632  19.2750  19.2750  22.4589  22.4589

          k =-0.4000 0.4000-0.4000 (   105 PWs)   bands (ev):

     1.2756   6.6142  19.3716  19.3716  20.9653  20.9653

          k = 0.5000-0.5000 0.5000 (   108 PWs)   bands (ev):

     3.5956   3.8189  19.8981  19.8981  19.9672  19.9672

          k = 0.0000 0.2000 0.0000 (   109 PWs)   bands (ev):

    -2.8098  18.9731  18.9731  19.2306  21.8284  24.6166

          k =-0.1000 0.3000-0.1000 (   106 PWs)   bands (ev):

    -2.1474  15.1970  17.9853  19.4147  21.8715  22.7203

          k =-0.2000 0.4000-0.2000 (   105 PWs)   bands (ev):

    -0.9308  11.3745  17.4582  19.0858  19.8358  24.7169

          k =-0.3000 0.5000-0.3000 (   106 PWs)   bands (ev):

     0.8195   7.9056  17.3929  18.0929  19.1309  23.7485

          k = 0.6000-0.4000 0.6000 (   101 PWs)   bands (ev):

     3.0755   4.8687  16.8903  17.7966  19.5734  22.5759

          k = 0.5000-0.3000 0.5000 (   103 PWs)   bands (ev):

     2.2702   5.8288  16.1606  18.6649  20.4984  21.8586

          k = 0.4000-0.2000 0.4000 (   103 PWs)   bands (ev):

     0.1788   9.0119  15.9219  19.9944  21.6169  21.8915

          k = 0.3000-0.1000 0.3000 (   104 PWs)   bands (ev):

    -1.3958  12.5819  16.1933  21.5430  22.0183  23.6948

          k = 0.2000 0.0000 0.2000 (   105 PWs)   bands (ev):

    -2.4299  16.1143  17.2993  21.9193  22.8616  24.0951

          k = 0.0000 0.4000 0.0000 (   101 PWs)   bands (ev):

    -1.6744  16.7877  16.8290  16.8290  19.2414  20.3615

          k =-0.1000 0.5000-0.1000 (   100 PWs)   bands (ev):

    -0.6491  13.1910  16.1359  16.8212  17.5819  21.0679

          k =-0.2000 0.6000-0.2000 (   105 PWs)   bands (ev):

     0.9114   9.6692  14.9578  15.9072  17.6097  23.5859

          k = 0.7000-0.3000 0.7000 (   103 PWs)   bands (ev):

     2.9853   6.5193  13.5591  16.1478  17.9524  25.7098

          k = 0.6000-0.2000 0.6000 (   101 PWs)   bands (ev):

     3.7836   5.5596  12.6620  16.8575  18.7656  24.8484

          k = 0.5000-0.1000 0.5000 (   102 PWs)   bands (ev):

     1.5489   8.5142  12.3220  18.0338  20.0533  24.4440

          k = 0.4000 0.0000 0.4000 (   101 PWs)   bands (ev):

    -0.1882  11.3801  13.0087  19.6780  21.7703  24.1281

          k = 0.0000 0.6000 0.0000 (   105 PWs)   bands (ev):

     0.1793  14.2790  14.9597  15.2838  15.2838  18.9639

          k =-0.1000 0.7000-0.1000 (   105 PWs)   bands (ev):

     1.5475  11.7496  12.2743  14.9002  16.1700  19.9050

          k = 0.8000-0.2000 0.8000 (   104 PWs)   bands (ev):

     3.4227   8.6179  10.6340  14.9825  16.5736  22.7473

          k = 0.7000-0.1000 0.7000 (   101 PWs)   bands (ev):

     5.6160   5.9436   9.5852  15.5305  17.2819  26.2016

          k = 0.6000 0.0000 0.6000 (   101 PWs)   bands (ev):

     3.4334   8.0054   9.6038  16.5473  18.4499  27.7656

          k = 0.0000 0.8000 0.0000 (   104 PWs)   bands (ev):

     2.7094   9.8878  13.8493  14.3624  14.3624  18.0253

          k = 0.9000-0.1000 0.9000 (   104 PWs)   bands (ev):

     4.3565   8.1187  11.1815  14.2878  15.4651  19.2926

          k = 0.8000 0.0000 0.8000 (   102 PWs)   bands (ev):

     5.9965   7.2958   8.4235  14.6760  16.2200  22.4583

          k = 0.0000-1.0000 0.0000 (   108 PWs)   bands (ev):

     5.3310   6.6439  13.4746  14.0553  14.0553  17.6952

          k =-0.2000 0.4000 0.0000 (   104 PWs)   bands (ev):

    -1.3026  13.7519  15.1768  19.5481  20.5033  22.3653

          k =-0.3000 0.5000-0.1000 (   102 PWs)   bands (ev):

     0.0876  10.5541  14.2756  17.5378  20.8504  23.9211

          k = 0.6000-0.4000 0.8000 (   105 PWs)   bands (ev):

     1.9991   7.2887  14.2826  16.0059  21.0491  22.7935

          k = 0.5000-0.3000 0.7000 (   104 PWs)   bands (ev):

     4.2724   4.5555  14.6185  15.1704  21.4554  21.9469

          k =-0.2000 0.6000 0.0000 (   104 PWs)   bands (ev):

     0.5472  12.0559  13.4860  14.7615  18.8773  21.0880

          k = 0.7000-0.3000 0.9000 (   103 PWs)   bands (ev):

     2.2694   9.1831  12.5910  13.3169  19.6204  23.2726

          k = 0.6000-0.2000 0.8000 (   103 PWs)   bands (ev):

     4.4750   6.2540  11.6009  13.4207  20.1882  24.8822

          k = 0.5000-0.1000 0.7000 (   103 PWs)   bands (ev):

     3.6956   7.1417  10.9446  14.2871  21.1296  24.1843

          k = 0.4000 0.0000 0.6000 (   104 PWs)   bands (ev):

     1.6384   9.6881  11.3184  15.6740  22.4535  23.2823

          k = 0.8000-0.2000 1.0000 (   102 PWs)   bands (ev):

     3.0683  10.1940  11.0376  12.7016  17.8752  20.2247

          k = 0.7000-0.1000 0.9000 (   105 PWs)   bands (ev):

     5.0492   8.3681   8.9803  12.3783  18.9680  22.7367

          k = 0.6000 0.0000 0.8000 (   105 PWs)   bands (ev):

     5.8613   6.9982   8.5370  13.0575  19.8760  26.1681

          k =-0.2000-1.0000 0.0000 (   104 PWs)   bands (ev):

     5.6628   7.0058  10.6972  12.3440  17.5376  19.9251

          k = 0.6000-0.2000 1.0000 (   105 PWs)   bands (ev):

     4.1286   8.6751  10.1348  11.5305  22.3182  23.6613

          k = 0.5000-0.1000 0.9000 (   104 PWs)   bands (ev):

     6.2838   6.5878   9.8561  10.7695  23.2821  23.8379

          k =-0.4000-1.0000 0.0000 (   104 PWs)   bands (ev):

     6.6635   7.9912   8.3379  10.1786  21.9877  23.6065

     the Fermi energy is     8.3286 ev
     (compare with:     8.2612 eV, computed in scf)

     Writing output data file /home/k-tsukamoto/win/Documents/QuantumEspresso/q-e-qe-6.7.0/tempdir/al.save/

     init_run     :      0.00s CPU      0.00s WALL (       1 calls)
     electrons    :      0.39s CPU      0.43s WALL (       1 calls)

     Called by init_run:
     wfcinit      :      0.00s CPU      0.00s WALL (       1 calls)
     potinit      :      0.00s CPU      0.00s WALL (       1 calls)
     hinit0       :      0.00s CPU      0.00s WALL (       1 calls)

     Called by electrons:
     c_bands      :      0.23s CPU      0.27s WALL (       1 calls)
     v_of_rho     :      0.00s CPU      0.00s WALL (       1 calls)

     Called by c_bands:
     init_us_2    :      0.00s CPU      0.00s WALL (      47 calls)
     ccgdiagg     :      0.22s CPU      0.25s WALL (      73 calls)
     wfcrot       :      0.02s CPU      0.02s WALL (      73 calls)

     Called by *cgdiagg:
     h_psi        :      0.20s CPU      0.21s WALL (    4115 calls)

     Called by h_psi:
     h_psi:calbec :      0.00s CPU      0.01s WALL (    4115 calls)
     vloc_psi     :      0.20s CPU      0.17s WALL (    4115 calls)
     add_vuspsi   :      0.00s CPU      0.01s WALL (    4115 calls)
     hs_1psi      :      0.20s CPU      0.21s WALL (    4042 calls)
     s_1psi       :      0.00s CPU      0.02s WALL (    4042 calls)

     General routines
     calbec       :      0.00s CPU      0.01s WALL (    8157 calls)
     fft          :      0.00s CPU      0.00s WALL (       3 calls)
     fftw         :      0.20s CPU      0.15s WALL (    8960 calls)
     davcio       :      0.00s CPU      0.00s WALL (      94 calls)


     PWSCF        :      0.52s CPU      0.59s WALL


   This run was terminated on:  14:15:14  27Jun2021            

=------------------------------------------------------------------------------=
   JOB DONE.
=------------------------------------------------------------------------------=
